unknown system                          
   1.00000000000000     
     6.000000    0.000000    0.000000
     0.000000    6.000000    0.000000
     0.000000    0.000000    6.000000
   C    O 
     1     1
Direct
  0.000000  0.000000  0.000000
  0.183333  0.016667  0.016667
 
   56   56   56
  273.95      303.12      425.75      588.34      746.61      902.06      1078.0      1257.0      1406.3      1518.5    
  1598.3      1622.9      1534.1      1294.8      948.30      602.43      347.46      195.78      109.39      62.314    
  36.609      21.953      12.943      7.2050      4.0541      2.7004      1.8927      1.0843     0.62440     0.59925    
 0.51996     0.25142     0.22015     0.51349     0.67229     0.57526     0.70317      1.3014      2.0422      2.7763    
  3.9457      6.0144      9.1709      13.926      21.468      33.178      50.497      76.078      115.17      174.70    
  257.80      359.59      454.26      492.45      443.94      342.83      276.23      311.43      433.12      592.71    
  751.13      913.39      1100.6      1290.3      1448.1      1568.0      1658.2      1694.8      1612.9      1368.3    
  1004.4      636.75      364.65      204.00      113.36      64.132      37.464      22.462      13.269      7.3308    
  4.0743      2.7611      1.9784      1.0911     0.57986     0.61451     0.57956     0.24717     0.16116     0.51049    
 0.72727     0.57694     0.63659      1.2729      2.0704      2.7475      3.8202      5.8871      9.0560      13.664    
  20.928      32.349      49.230      73.847      111.13      167.74      246.41      341.39      428.70      464.01    
  421.17      332.62      282.70      316.17      417.22      550.40      688.41      836.59      1013.6      1199.8    
  1363.3      1492.2      1586.3      1619.2      1532.3      1291.4      943.23      597.57      344.38      194.31    
  108.73      61.937      36.376      21.907      12.972      7.1551      3.9760      2.7270      1.9730      1.0713    
 0.54499     0.59811     0.58553     0.23929     0.12772     0.48603     0.72662     0.56276     0.58414      1.2094    
  2.0103      2.6462      3.6358      5.6174      8.6487      12.948      19.679      30.309      45.900      68.179    
  101.27      150.88      219.25      300.12      374.44      408.43      382.00      320.02      281.08      306.75    
  376.72      471.29      576.66      695.63      843.43      1009.8      1168.5      1298.9      1386.8      1403.9    
  1308.2      1085.5      785.59      499.76      294.30      169.64      96.784      56.235      33.529      20.347    
  12.074      6.6951      3.7697      2.5986      1.8743      1.0289     0.52858     0.55554     0.53920     0.23272    
 0.13061     0.44868     0.67309     0.53788     0.55842      1.1238      1.8698      2.4837      3.4139      5.2320    
  7.9851      11.848      17.853      27.294      40.969      60.046      87.568      127.87      182.76      246.78    
  306.29      339.41      332.25      299.87      260.13      276.37      316.61      373.78      444.40      529.57    
  637.49      768.65      904.16      1019.0      1089.7      1089.6      995.58      811.59      583.99      377.74    
  230.84      136.85      80.581      48.253      29.384      17.982      10.691      6.0063      3.4703      2.3922    
  1.7049     0.96896     0.52512     0.49763     0.46113     0.23130     0.16328     0.40823     0.58805     0.50915    
 0.55546      1.0278      1.6758      2.2763      3.1603      4.7590      7.1356      10.475      15.629      23.634    
  35.073      50.658      72.350      103.01      143.91      191.59      236.93      267.56      274.86      265.53    
  218.27      227.42      246.98      276.76      318.21      373.41      443.87      532.80      629.70      713.35    
  760.38      750.47      674.15      543.94      394.85      264.54      168.33      103.48      63.532      39.424    
  24.546      15.124      9.0204      5.1804      3.1031      2.1359      1.4995     0.89397     0.51836     0.43434    
 0.37737     0.23351     0.20536     0.36960     0.49666     0.47885     0.55733     0.92714      1.4591      2.0376    
  2.8692      4.2257      6.1901      8.9700      13.220      19.709      28.879      41.142      57.563      79.720    
  108.33      141.53      174.21      199.65      213.11      216.41      165.50      170.94      179.80      193.77    
  215.30      247.44      291.08      343.93      401.21      450.33      475.36      463.98      413.85      336.21    
  251.23      175.33      115.87      74.737      48.091      30.893      19.589      12.131      7.2901      4.3237    
  2.7026      1.8610      1.2884     0.80326     0.49227     0.37210     0.30627     0.23302     0.23440     0.33183    
 0.41519     0.44409     0.54429     0.82292      1.2439      1.7782      2.5364      3.6599      5.2360      7.4717    
  10.839      15.884      22.961      32.319      44.418      59.904      79.020      100.80      122.69      141.26    
  154.00      161.09      116.08      119.85      124.37      130.95      141.60      158.64      183.07      212.95    
  243.23      267.36      277.95      269.40      241.57      200.29      154.07      111.34      77.242      52.527    
  35.306      23.307      14.961      9.3169      5.6944      3.5241      2.3029      1.5908      1.0876     0.69682    
 0.44152     0.31476     0.25385     0.22375     0.23791     0.29186     0.34779     0.40156     0.50731     0.71678    
  1.0443      1.5105      2.1719      3.0909      4.3398      6.0896      8.6618      12.437      17.710      24.654    
  33.395      44.040      56.521      70.287      84.099      96.290      105.57      111.81      77.856      80.613    
  83.531      87.283      92.917      101.64      113.98      128.98      144.01      155.38      159.45      153.90    
  138.83      116.98      92.658      69.894      50.976      36.293      25.194      16.917      10.949      6.8987    
  4.3464      2.8290      1.9259      1.3348     0.89960     0.57941     0.37390     0.26513     0.21729     0.20474    
 0.21783     0.24888     0.29144     0.35238     0.45191     0.61408     0.86762      1.2506      1.8008      2.5477    
  3.5378      4.8845      6.7933      9.5258      13.321      18.313      24.500      31.761      39.881      48.484    
  56.938      64.437      70.364      74.667      51.043      52.997      55.184      57.850      61.312      65.954    
  71.918      78.750      85.297      89.951      91.108      87.749      79.917      68.809      56.314      44.199    
  33.523      24.605      17.391      11.787      7.7067      4.9742      3.2766      2.2463      1.5782      1.0923    
 0.72249     0.46140     0.30409     0.22512     0.19124     0.18063     0.18570     0.20551     0.24242     0.30204    
 0.39149     0.52191     0.71724      1.0153      1.4529      2.0533      2.8398      3.8697      5.2613      7.1874    
  9.8268      13.286      17.541      22.437      27.740      33.163      38.333      42.834      46.374      48.988    
  33.331      34.577      36.124      38.054      40.347      42.966      45.832      48.728      51.244      52.811    
  52.831      50.870      46.868      41.229      34.693      28.021      21.763      16.220      11.564      7.9089    
  5.2772      3.5429      2.4595      1.7620      1.2591     0.86263     0.55850     0.35519     0.24456     0.19494    
 0.17163     0.15746     0.15331     0.16577     0.19931     0.25611     0.33685     0.44436     0.59324     0.81552    
  1.1496      1.6213      2.2411      3.0273      4.0366      5.3721      7.1537      9.4605      12.281      15.504    
  18.955      22.427      25.679      28.458      30.594      32.126      21.926      22.602      23.499      24.694    
  26.123      27.649      29.125      30.408      31.352      31.786      31.509      30.329      28.159      25.103    
  21.450      17.566      13.782      10.350      7.4511      5.1959      3.5925      2.5341      1.8446      1.3568    
 0.96929     0.65217     0.41570     0.26980     0.20021     0.17267     0.15565     0.13788     0.12627     0.13222    
 0.16225     0.21646     0.29029     0.37976     0.49206     0.65302     0.89891      1.2567      1.7336      2.3298    
  3.0637      3.9871      5.1699      6.6640      8.4675      10.519      12.720      14.951      17.066      18.892    
  20.289      21.245      14.359      14.664      15.067      15.664      16.455      17.364      18.279      19.082    
  19.657      19.891      19.666      18.872      17.465      15.516      13.217      10.809      8.5075      6.4608    
  4.7590      3.4421      2.4934      1.8393      1.3764      1.0164     0.71579     0.47315     0.30281     0.20768    
 0.16864     0.15432     0.14015     0.12020     0.10401     0.10502     0.13113     0.18142     0.24785     0.32230    
 0.40727     0.52235     0.69782     0.95848      1.3123      1.7553      2.2889      2.9337      3.7242      4.6871    
  5.8190      7.0868      8.4440      9.8390      11.198      12.408      13.351      13.977      9.2199      9.3508    
  9.5028      9.7550      10.137      10.635      11.195      11.736      12.156      12.345      12.203      11.660    
  10.709      9.4308      7.9816      6.5316      5.2052      4.0609      3.1131      2.3585      1.7806      1.3455    
  1.0087     0.73416     0.50826     0.33557     0.22288     0.16533     0.14411     0.13514     0.12164     0.10142    
 0.84331E-01 0.83198E-01 0.10528     0.14889     0.20554     0.26668     0.33229     0.41571     0.53931     0.72293    
 0.97468      1.2926      1.6754      2.1311      2.6741      3.3112      4.0311      4.8091      5.6217      6.4514    
  7.2684      8.0128      8.6068      9.0016      5.9867      6.0730      6.1425      6.2366      6.3738      6.5489    
  6.7376      6.9028      7.0030      6.9990      6.8549      6.5407      6.0462      5.4000      4.6698      3.9357    
  3.2555      2.6512      2.1225      1.6664      1.2824     0.96752     0.71309     0.50972     0.35261     0.24072    
 0.17139     0.13627     0.12146     0.11206     0.98531E-01 0.80827E-01 0.66913E-01 0.66457E-01 0.84462E-01 0.11900    
 0.16353     0.21186     0.26361     0.32701     0.41623     0.54419     0.71702     0.93552      1.2019      1.5233    
  1.9061      2.3457      2.8230      3.3138      3.8027      4.2868      4.7611      5.2024      5.5701      5.8314    
  4.1061      4.1921      4.2406      4.2689      4.2843      4.2821      4.2505      4.1801      4.0730      3.9411    
  3.7927      3.6203      3.4046      3.1331      2.8141      2.4724      2.1308      1.7990      1.4784      1.1738    
 0.89769     0.66411     0.48008     0.34341     0.24650     0.18091     0.13908     0.11388     0.98165E-01 0.85688E-01
 0.72973E-01 0.60730E-01 0.53182E-01 0.55226E-01 0.69238E-01 0.93815E-01 0.12530     0.16100     0.20190     0.25318    
 0.32186     0.41340     0.53025     0.67452     0.85216      1.0728      1.3420      1.6523      1.9817      2.3062    
  2.6146      2.9123      3.2079      3.4967      3.7569      3.9637      2.7960      2.8736      2.9229      2.9491    
  2.9569      2.9517      2.9375      2.9146      2.8792      2.8233      2.7338      2.5959      2.4025      2.1646    
  1.9089      1.6623      1.4354      1.2205      1.0058     0.79151     0.59300     0.42928     0.30992     0.23075    
 0.17947     0.14383     0.11619     0.93314E-01 0.74480E-01 0.59832E-01 0.49678E-01 0.44295E-01 0.44002E-01 0.49132E-01
 0.59654E-01 0.74892E-01 0.94172E-01 0.11825     0.15000     0.19308     0.24952     0.31865     0.39894     0.49204    
 0.60541     0.75004     0.93262      1.1473      1.3752      1.5954      1.7981      1.9888      2.1774      2.3646    
  2.5387      2.6850      1.7053      1.7574      1.8137      1.8685      1.9161      1.9583      2.0033      2.0546    
  2.1029      2.1240      2.0887      1.9768      1.7910      1.5599      1.3247      1.1173     0.94442     0.79233    
 0.64501     0.50005     0.36933     0.26742     0.20000     0.16088     0.13724     0.11737     0.95589E-01 0.72643E-01
 0.52500E-01 0.38713E-01 0.32557E-01 0.33170E-01 0.38459E-01 0.45960E-01 0.53754E-01 0.61477E-01 0.70915E-01 0.85659E-01
 0.10977     0.14579     0.19294     0.24723     0.30454     0.36519     0.43603     0.52718     0.64477     0.78522    
 0.93581      1.0818      1.2140      1.3310      1.4346      1.5242      1.5972      1.6549      1.0271      1.0487    
  1.0884      1.1386      1.1835      1.2084      1.2077      1.1859      1.1523      1.1151      1.0759      1.0290    
 0.96646     0.88482     0.78865     0.68679     0.58567     0.48700     0.39135     0.30251     0.22750     0.17236    
 0.13803     0.11927     0.10707     0.93125E-01 0.74117E-01 0.52792E-01 0.34851E-01 0.24513E-01 0.22462E-01 0.26802E-01
 0.34592E-01 0.42585E-01 0.48142E-01 0.50978E-01 0.54134E-01 0.62637E-01 0.80724E-01 0.10971     0.14747     0.18941    
 0.23131     0.27281     0.31892     0.37690     0.45054     0.53707     0.62926     0.72007     0.80492     0.88033    
 0.94194     0.98506      1.0085      1.0182     0.79087     0.78934     0.78936     0.79350     0.79376     0.77516    
 0.72577     0.64668     0.55483     0.47570     0.42964     0.42037     0.43334     0.44506     0.43692     0.40373    
 0.35234     0.29417     0.23848     0.19037     0.15201     0.12388     0.10487     0.92005E-01 0.81036E-01 0.68217E-01
 0.52445E-01 0.36054E-01 0.23219E-01 0.17046E-01 0.17788E-01 0.23323E-01 0.30661E-01 0.36992E-01 0.40413E-01 0.41059E-01
 0.41843E-01 0.47317E-01 0.60917E-01 0.82912E-01 0.11068     0.14070     0.17071     0.20109     0.23478     0.27515    
 0.32299     0.37544     0.42865     0.48171     0.53732     0.59788     0.66094     0.71852     0.76134     0.78454    
 0.61715     0.60616     0.58587     0.56463     0.54756     0.53604     0.52943     0.52654     0.52522     0.52106    
 0.50768     0.47955     0.43543     0.37963     0.32024     0.26555     0.22058     0.18579     0.15839     0.13535    
 0.11523     0.97827E-01 0.82806E-01 0.69299E-01 0.56587E-01 0.44553E-01 0.33498E-01 0.24051E-01 0.17360E-01 0.14703E-01
 0.16336E-01 0.20821E-01 0.25779E-01 0.29313E-01 0.30840E-01 0.31215E-01 0.32582E-01 0.37669E-01 0.48217E-01 0.63681E-01
 0.81831E-01 0.10091     0.12118     0.14433     0.17186     0.20375     0.23810     0.27190     0.30319     0.33371    
 0.36918     0.41531     0.47205     0.53129     0.58064     0.61018     0.31230     0.30426     0.29938     0.29837    
 0.30313     0.31912     0.35278     0.40475     0.46399     0.50925     0.51881     0.48282     0.40947     0.32052    
 0.23947     0.18060     0.14540     0.12654     0.11482     0.10397     0.91508E-01 0.77333E-01 0.62281E-01 0.47664E-01
 0.35080E-01 0.25775E-01 0.19942E-01 0.16773E-01 0.15308E-01 0.15138E-01 0.16213E-01 0.18149E-01 0.20047E-01 0.21138E-01
 0.21576E-01 0.22566E-01 0.25661E-01 0.31758E-01 0.40484E-01 0.50490E-01 0.60602E-01 0.71101E-01 0.83959E-01 0.10155    
 0.12467     0.15148     0.17834     0.20207     0.22200     0.24024     0.25980     0.28163     0.30293     0.31846    
 0.32425     0.32070     0.12498     0.12425     0.13392     0.14788     0.15839     0.15978     0.15054     0.13300    
 0.11176     0.92415E-01 0.80077E-01 0.77509E-01 0.83509E-01 0.93261E-01 0.10088     0.10255     0.98222E-01 0.90771E-01
 0.83230E-01 0.76237E-01 0.67934E-01 0.56476E-01 0.42540E-01 0.29162E-01 0.19304E-01 0.13960E-01 0.12352E-01 0.13076E-01
 0.14659E-01 0.15770E-01 0.15772E-01 0.15062E-01 0.14421E-01 0.14192E-01 0.14571E-01 0.16426E-01 0.20897E-01 0.27851E-01
 0.35395E-01 0.41509E-01 0.46049E-01 0.50998E-01 0.59122E-01 0.72455E-01 0.91174E-01 0.11295     0.13375     0.15048    
 0.16338     0.17496     0.18601     0.19324     0.19147     0.17853     0.15799     0.13757     0.19052     0.19413    
 0.19352     0.18767     0.17365     0.14577     0.98589E-01 0.32606E-01 -.41355E-01 -.10348     -.13329     -.12093    
 -.73859E-01 -.13289E-01 0.37585E-01 0.65435E-01 0.71021E-01 0.64354E-01 0.55778E-01 0.49672E-01 0.44406E-01 0.36911E-01
 0.26920E-01 0.17231E-01 0.10819E-01 0.85184E-02 0.92682E-02 0.11512E-01 0.13796E-01 0.14799E-01 0.13906E-01 0.11840E-01
 0.10076E-01 0.95605E-02 0.10483E-01 0.13153E-01 0.18080E-01 0.24717E-01 0.30927E-01 0.34692E-01 0.36350E-01 0.38612E-01
 0.44436E-01 0.55087E-01 0.69682E-01 0.85659E-01 0.99835E-01 0.11030     0.11808     0.12630     0.13705     0.14925    
 0.16024     0.16894     0.17650     0.18398     0.23300     0.23750     0.22787     0.20813     0.18643     0.17103    
 0.16631     0.17086     0.17848     0.18149     0.17482     0.15826     0.13549     0.11119     0.88569E-01 0.69028E-01
 0.53123E-01 0.41260E-01 0.33496E-01 0.28969E-01 0.25866E-01 0.22273E-01 0.17406E-01 0.12165E-01 0.83784E-02 0.72777E-02
 0.85525E-02 0.10704E-01 0.12155E-01 0.12100E-01 0.10708E-01 0.88406E-02 0.75371E-02 0.75112E-02 0.90075E-02 0.12050E-01
 0.16514E-01 0.21698E-01 0.26133E-01 0.28554E-01 0.29442E-01 0.31244E-01 0.36533E-01 0.45783E-01 0.56966E-01 0.67198E-01
 0.74716E-01 0.79784E-01 0.84415E-01 0.91369E-01 0.10285     0.11957     0.14088     0.16553     0.19171     0.21598    
 0.72035E-01 0.76833E-01 0.79623E-01 0.78469E-01 0.78785E-01 0.91787E-01 0.12714     0.18430     0.24881     0.29742    
 0.30996     0.28061     0.22085     0.15200     0.93349E-01 0.54032E-01 0.32712E-01 0.22874E-01 0.18430E-01 0.16150E-01
 0.14917E-01 0.14054E-01 0.12741E-01 0.10680E-01 0.86502E-02 0.78328E-02 0.85006E-02 0.96151E-02 0.98485E-02 0.88422E-02
 0.73576E-02 0.64035E-02 0.64687E-02 0.75141E-02 0.93762E-02 0.11978E-01 0.15179E-01 0.18512E-01 0.21213E-01 0.22827E-01
 0.24034E-01 0.26662E-01 0.32303E-01 0.40573E-01 0.48952E-01 0.54735E-01 0.57354E-01 0.58842E-01 0.62102E-01 0.68536E-01
 0.76781E-01 0.83311E-01 0.84715E-01 0.80457E-01 0.73936E-01 0.70270E-01 -.49592E-01 -.44729E-01 -.32918E-01 -.21808E-01
 -.15270E-01 -.13257E-01 -.14709E-01 -.19647E-01 -.28256E-01 -.38569E-01 -.45937E-01 -.45410E-01 -.35164E-01 -.18171E-01
 -.74678E-03 0.11126E-01 0.15215E-01 0.13741E-01 0.10945E-01 0.96902E-02 0.10046E-01 0.10565E-01 0.10298E-01 0.94501E-02
 0.86483E-02 0.82155E-02 0.80852E-02 0.79418E-02 0.73574E-02 0.61939E-02 0.50457E-02 0.49413E-02 0.63157E-02 0.84921E-02
 0.10458E-01 0.11959E-01 0.13470E-01 0.15233E-01 0.16885E-01 0.18243E-01 0.20094E-01 0.23741E-01 0.29677E-01 0.36790E-01
 0.42885E-01 0.46178E-01 0.46778E-01 0.47034E-01 0.49916E-01 0.55982E-01 0.61274E-01 0.58689E-01 0.42825E-01 0.14874E-01
 -.16644E-01 -.40508E-01 0.59776E-01 0.63636E-01 0.61509E-01 0.51508E-01 0.33859E-01 0.76199E-02 -.30786E-01 -.83647E-01
 -.14502     -.19833     -.22336     -.20871     -.15965     -.95284E-01 -.37664E-01 -.94116E-03 0.13305E-01 0.13194E-01
 0.91793E-02 0.74200E-02 0.81403E-02 0.89128E-02 0.85623E-02 0.78416E-02 0.75468E-02 0.74091E-02 0.69086E-02 0.61229E-02
 0.53413E-02 0.45978E-02 0.41428E-02 0.47570E-02 0.68278E-02 0.94239E-02 0.11082E-01 0.11471E-01 0.11607E-01 0.12428E-01
 0.13880E-01 0.15686E-01 0.18284E-01 0.22406E-01 0.27957E-01 0.33758E-01 0.38322E-01 0.40791E-01 0.41565E-01 0.42463E-01
 0.45759E-01 0.52080E-01 0.59018E-01 0.62598E-01 0.60865E-01 0.56071E-01 0.52958E-01 0.54628E-01 0.16981     0.17296    
 0.15917     0.13293     0.10524     0.87804E-01 0.85871E-01 0.95289E-01 0.10632     0.11045     0.10442     0.89947E-01
 0.71336E-01 0.53255E-01 0.38860E-01 0.28587E-01 0.20844E-01 0.14340E-01 0.94775E-02 0.72186E-02 0.71969E-02 0.77552E-02
 0.76526E-02 0.69698E-02 0.63029E-02 0.58000E-02 0.52758E-02 0.47145E-02 0.42575E-02 0.40365E-02 0.43473E-02 0.56240E-02
 0.77900E-02 0.98696E-02 0.10782E-01 0.10524E-01 0.10202E-01 0.10881E-01 0.12760E-01 0.15493E-01 0.18873E-01 0.22929E-01
 0.27546E-01 0.32186E-01 0.36015E-01 0.38463E-01 0.39969E-01 0.42137E-01 0.46674E-01 0.53951E-01 0.63036E-01 0.73505E-01
 0.86832E-01 0.10520     0.12854     0.15257     0.63672E-01 0.67449E-01 0.65844E-01 0.58246E-01 0.52521E-01 0.62304E-01
 0.97554E-01 0.15541     0.21891     0.26483     0.27523     0.24615     0.18901     0.12429     0.70732E-01 0.36833E-01
 0.19970E-01 0.12563E-01 0.88816E-02 0.70820E-02 0.69846E-02 0.77945E-02 0.81680E-02 0.74333E-02 0.59985E-02 0.46994E-02
 0.40321E-02 0.39269E-02 0.40640E-02 0.43772E-02 0.51987E-02 0.67677E-02 0.86422E-02 0.98914E-02 0.10024E-01 0.95715E-02
 0.96398E-02 0.11013E-01 0.13739E-01 0.17344E-01 0.21240E-01 0.25092E-01 0.28948E-01 0.32886E-01 0.36492E-01 0.39113E-01
 0.41034E-01 0.44005E-01 0.49763E-01 0.57768E-01 0.64927E-01 0.67991E-01 0.66240E-01 0.61969E-01 0.58830E-01 0.59500E-01
 -.49223E-01 -.45587E-01 -.35619E-01 -.26483E-01 -.21382E-01 -.19665E-01 -.20463E-01 -.25017E-01 -.34727E-01 -.47479E-01
 -.57129E-01 -.57334E-01 -.46131E-01 -.27284E-01 -.78589E-02 0.57904E-02 0.11158E-01 0.10279E-01 0.76282E-02 0.67035E-02
 0.79669E-02 0.96407E-02 0.10012E-01 0.87927E-02 0.67768E-02 0.49335E-02 0.39156E-02 0.38913E-02 0.45283E-02 0.53530E-02
 0.62676E-02 0.74724E-02 0.88065E-02 0.95937E-02 0.94953E-02 0.92548E-02 0.10155E-01 0.12771E-01 0.16558E-01 0.20592E-01
 0.24396E-01 0.28061E-01 0.31896E-01 0.36017E-01 0.40034E-01 0.43245E-01 0.45658E-01 0.48820E-01 0.54703E-01 0.62753E-01
 0.68096E-01 0.63673E-01 0.45343E-01 0.15790E-01 -.16051E-01 -.39768E-01 0.70543E-01 0.71894E-01 0.68941E-01 0.59583E-01
 0.43008E-01 0.16938E-01 -.22901E-01 -.78581E-01 -.14352     -.20039     -.22804     -.21413     -.16384     -.97462E-01
 -.38588E-01 -.18686E-02 0.11865E-01 0.11689E-01 0.83737E-02 0.78906E-02 0.10150E-01 0.12213E-01 0.12151E-01 0.10285E-01
 0.79260E-02 0.60110E-02 0.49645E-02 0.49661E-02 0.57727E-02 0.66873E-02 0.72298E-02 0.76337E-02 0.82875E-02 0.89968E-02
 0.94175E-02 0.10077E-01 0.12170E-01 0.16083E-01 0.20710E-01 0.24657E-01 0.27782E-01 0.31147E-01 0.35709E-01 0.41434E-01
 0.47431E-01 0.52586E-01 0.56408E-01 0.59864E-01 0.65103E-01 0.73299E-01 0.82369E-01 0.87669E-01 0.86000E-01 0.78981E-01
 0.71937E-01 0.69201E-01 0.23641     0.23598     0.21921     0.19118     0.16200     0.14175     0.13520     0.13954    
 0.14650     0.14752     0.13837     0.12028     0.97676E-01 0.75001E-01 0.55000E-01 0.38742E-01 0.26425E-01 0.18056E-01
 0.13601E-01 0.12549E-01 0.13447E-01 0.14235E-01 0.13438E-01 0.11104E-01 0.84890E-02 0.68597E-02 0.66153E-02 0.73017E-02
 0.81159E-02 0.84167E-02 0.80992E-02 0.76430E-02 0.76667E-02 0.84114E-02 0.98477E-02 0.12217E-01 0.15978E-01 0.20928E-01
 0.25781E-01 0.29236E-01 0.31551E-01 0.34681E-01 0.40616E-01 0.49631E-01 0.60040E-01 0.69417E-01 0.76242E-01 0.81046E-01
 0.86390E-01 0.95380E-01 0.10964     0.12856     0.15058     0.17464     0.19962     0.22224     0.19126     0.19140    
 0.18651     0.17671     0.16875     0.17439     0.20349     0.25551     0.31565     0.35983     0.36696     0.33060    
 0.26218     0.18365     0.11561     0.68715E-01 0.42565E-01 0.30386E-01 0.24914E-01 0.21743E-01 0.19268E-01 0.16929E-01
 0.14175E-01 0.10917E-01 0.81331E-02 0.71866E-02 0.83407E-02 0.10276E-01 0.11274E-01 0.10698E-01 0.92292E-02 0.79698E-02
 0.76762E-02 0.87234E-02 0.11344E-01 0.15586E-01 0.21047E-01 0.26749E-01 0.31439E-01 0.34424E-01 0.36542E-01 0.40324E-01
 0.48608E-01 0.62292E-01 0.79165E-01 0.95142E-01 0.10711     0.11515     0.12236     0.13240     0.14654     0.16240    
 0.17575     0.18380     0.18734     0.18931     0.10961     0.10912     0.11880     0.13042     0.13664     0.13367    
 0.12141     0.10232     0.80233E-01 0.59581E-01 0.44767E-01 0.38968E-01 0.42394E-01 0.51325E-01 0.59600E-01 0.62253E-01
 0.58450E-01 0.51055E-01 0.43452E-01 0.36909E-01 0.30697E-01 0.23990E-01 0.17141E-01 0.11448E-01 0.82209E-02 0.80183E-02
 0.10182E-01 0.12897E-01 0.14150E-01 0.13144E-01 0.10857E-01 0.91017E-02 0.91097E-02 0.11091E-01 0.14804E-01 0.20005E-01
 0.26198E-01 0.32352E-01 0.37346E-01 0.40963E-01 0.44585E-01 0.50989E-01 0.63095E-01 0.82064E-01 0.10585     0.12974    
 0.14917     0.16304     0.17422     0.18625     0.19873     0.20598     0.20083     0.18089     0.15185     0.12483    
 0.29080     0.28419     0.27909     0.27156     0.25417     0.21787     0.15662     0.73282E-01 -.17223E-01 -.91394E-01
 -.12728     -.11598     -.67018E-01 -.34591E-02 0.50271E-01 0.80073E-01 0.86339E-01 0.79047E-01 0.68515E-01 0.59075E-01
 0.49580E-01 0.38295E-01 0.26378E-01 0.16950E-01 0.12050E-01 0.11292E-01 0.12868E-01 0.14873E-01 0.15771E-01 0.14833E-01
 0.12809E-01 0.11655E-01 0.12872E-01 0.16254E-01 0.20604E-01 0.25337E-01 0.30768E-01 0.37045E-01 0.43693E-01 0.50560E-01
 0.58785E-01 0.70531E-01 0.87902E-01 0.11189     0.14142     0.17292     0.20159     0.22464     0.24337     0.26153    
 0.28088     0.29884     0.31059     0.31333     0.30833     0.29953     0.61694     0.59946     0.56747     0.52714    
 0.48392     0.44265     0.40752     0.38081     0.36137     0.34479     0.32533     0.29866     0.26398     0.22446    
 0.18559     0.15239     0.12725     0.10962     0.96961E-01 0.85915E-01 0.73586E-01 0.59015E-01 0.43875E-01 0.31217E-01
 0.23057E-01 0.19112E-01 0.17644E-01 0.17002E-01 0.16288E-01 0.15353E-01 0.14863E-01 0.16009E-01 0.19367E-01 0.23986E-01
 0.28196E-01 0.31518E-01 0.35387E-01 0.41860E-01 0.52014E-01 0.65744E-01 0.82627E-01 0.10260     0.12621     0.15451    
 0.18834     0.22674     0.26643     0.30351     0.33682     0.36928     0.40587     0.44986     0.49993     0.54993    
 0.59090     0.61458     0.81310     0.78299     0.74468     0.70363     0.66513     0.63770     0.63142     0.65009    
 0.68359     0.70836     0.69822     0.63914     0.53774     0.41776     0.30724     0.22494     0.17418     0.14628    
 0.12910     0.11415     0.98504E-01 0.82534E-01 0.67297E-01 0.53561E-01 0.41939E-01 0.32782E-01 0.25859E-01 0.20616E-01
 0.16969E-01 0.15597E-01 0.17232E-01 0.21689E-01 0.27597E-01 0.33025E-01 0.36590E-01 0.38599E-01 0.41565E-01 0.49374E-01
 0.65093E-01 0.88890E-01 0.11794     0.14867     0.17959     0.21255     0.25137     0.29893     0.35454     0.41410    
 0.47319     0.53083     0.59013     0.65410     0.72004     0.77801     0.81585     0.82679      1.0319     0.98896    
 0.95309     0.92330     0.88988     0.84285     0.77952     0.70601     0.63280     0.56819     0.51454     0.46899    
 0.42665     0.38368     0.33885     0.29358     0.25065     0.21220     0.17873     0.14998     0.12602     0.10706    
 0.92146E-01 0.79030E-01 0.65691E-01 0.51753E-01 0.38333E-01 0.27071E-01 0.19614E-01 0.17337E-01 0.20509E-01 0.27522E-01
 0.35427E-01 0.41575E-01 0.44999E-01 0.46968E-01 0.51083E-01 0.62558E-01 0.85777E-01 0.12104     0.16364     0.20698    
 0.24789     0.28945     0.33944     0.40525     0.48889     0.58519     0.68503     0.78108     0.87098     0.95411    
  1.0254      1.0737      1.0889      1.0709      1.6516      1.5984      1.5453      1.4952      1.4352      1.3460    
  1.2160      1.0516     0.87666     0.72271     0.61414     0.55686     0.53696     0.52955     0.51177     0.47233    
 0.41304     0.34377     0.27552     0.21630     0.17030     0.13836     0.11800     0.10395     0.90287E-01 0.73645E-01
 0.54856E-01 0.37749E-01 0.26311E-01 0.22461E-01 0.25497E-01 0.32835E-01 0.41270E-01 0.48283E-01 0.53159E-01 0.57691E-01
 0.66156E-01 0.84136E-01 0.11597     0.16186     0.21701     0.27458     0.33127     0.39163     0.46703     0.56893    
 0.70070     0.85399      1.0131      1.1646      1.3037      1.4314      1.5456      1.6352      1.6847      1.6872    
  2.6814      2.6221      2.5405      2.4492      2.3489      2.2380      2.1195      1.9996      1.8819      1.7636    
  1.6363      1.4917      1.3285      1.1552     0.98630     0.83275     0.69604     0.57062     0.45247     0.34483    
 0.25615     0.19293     0.15427     0.13192     0.11509     0.96253E-01 0.74415E-01 0.53729E-01 0.39163E-01 0.32830E-01
 0.33509E-01 0.38519E-01 0.45518E-01 0.53207E-01 0.61630E-01 0.72569E-01 0.89475E-01 0.11645     0.15668     0.21096    
 0.27720     0.35199     0.43457     0.53095     0.65390     0.81617      1.0206      1.2547      1.4964      1.7272    
  1.9422      2.1467      2.3426      2.5155      2.6394      2.6941      3.9677      3.8950      3.7824      3.6441    
  3.4888      3.3315      3.1928      3.0845      2.9957      2.8935      2.7386      2.5075      2.2081      1.8779    
  1.5650      1.3011      1.0877     0.90341     0.72783     0.55829     0.40875     0.29472     0.21999     0.17510    
 0.14548     0.12033     0.96166E-01 0.74790E-01 0.59052E-01 0.49968E-01 0.46413E-01 0.46690E-01 0.50219E-01 0.58044E-01
 0.71996E-01 0.93440E-01 0.12284     0.16062     0.20845     0.26964     0.34807     0.44722     0.57096     0.72595    
 0.92264      1.1712      1.4731      1.8151      2.1723      2.5211      2.8519      3.1660      3.4601      3.7128    
  3.8917      3.9751      5.8872      5.7643      5.5696      5.3233      5.0366      4.7236      4.4053      4.1025    
  3.8261      3.5719      3.3225      3.0571      2.7646      2.4525      2.1426      1.8552      1.5942      1.3475    
  1.1025     0.86147     0.64218     0.46457     0.33634     0.25020     0.19211     0.15073     0.12048     0.99002E-01
 0.84195E-01 0.73589E-01 0.65288E-01 0.59157E-01 0.57643E-01 0.65312E-01 0.86262E-01 0.12086     0.16520     0.21501    
 0.27100     0.34126     0.43867     0.57582     0.76126     0.99981      1.2960      1.6562      2.0840      2.5725    
  3.1005      3.6403      4.1700      4.6754      5.1374      5.5213      5.7856      5.9050      9.2173      8.9813    
  8.6016      8.1379      7.6294      7.0994      6.5658      6.0477      5.5660      5.1353      4.7519      4.3897    
  4.0142      3.6057      3.1727      2.7407      2.3308      1.9480      1.5888      1.2550     0.95773     0.70995    
 0.51641     0.37206     0.26762     0.19535     0.14961     0.12412     0.11054     0.10034     0.88545E-01 0.76037E-01
 0.69290E-01 0.77118E-01 0.10550     0.15325     0.21249     0.27536     0.34309     0.43038     0.56087     0.75638    