unknown system                          
   1.00000000000000     
     6.000000    0.000000    0.000000
     0.000000    6.000000    0.000000
     0.000000    0.000000    6.000000
   C    O 
     1     1
Direct
  0.000000  0.000000  0.000000
  0.200000  0.000000  0.000000
 
   56   56   56
  254.82      270.82      364.51      483.68      593.37      699.34      834.90      1016.8      1220.4      1410.8    
  1571.1      1694.2      1744.6      1656.8      1396.0      1015.8      637.41      361.25      201.21      112.50    
  63.438      35.991      21.431      13.480      7.6948      3.6220      2.2525      2.3336      1.6781     0.41771    
 0.14799     0.79713     0.86710     0.21108     0.14042     0.90583      1.3208      1.0870      1.4127      2.8418    
  4.4181      5.7875      8.3939      13.644      21.565      32.564      49.232      75.391      115.18      173.98    
  255.53      355.27      445.95      478.90      427.28      326.11      260.45      274.16      358.87      467.30    
  568.18      667.43      794.80      967.67      1165.6      1354.6      1514.2      1632.3      1673.0      1578.4    
  1321.7      957.96      601.38      343.01      192.51      108.27      61.469      35.100      20.952      13.149    
  7.5211      3.5954      2.2413      2.2676      1.6285     0.43438     0.16447     0.76016     0.83033     0.22608    
 0.16009     0.87564      1.2777      1.0832      1.4145      2.7918      4.3372      5.7186      8.2899      13.406    
  21.144      31.916      48.156      73.470      111.80      168.22      246.26      341.30      428.27      462.17    
  417.55      325.99      271.29      279.36      341.30      422.28      500.28      581.69      687.10      834.14    
  1012.3      1191.4      1344.0      1446.7      1465.1      1358.6      1119.6      804.11      506.84      295.08    
  169.01      96.755      56.020      32.567      19.569      12.202      7.0243      3.5063      2.2031      2.0891    
  1.4945     0.47613     0.20834     0.66431     0.73368     0.26517     0.21303     0.79764      1.1630      1.0698    
  1.4153      2.6538      4.1106      5.5139      7.9793      12.715      19.930      30.043      45.077      68.066    
  102.37      152.30      220.89      303.55      380.54      416.25      389.11      321.98      273.34      275.25    
  310.40      358.56      408.21      466.02      542.98      652.93      795.30      947.04      1077.3      1155.9    
  1152.6      1046.0      845.91      603.54      386.22      233.01      137.20      80.894      48.258      28.778    
  17.439      10.777      6.2759      3.3361      2.1268      1.8459      1.3115     0.52173     0.26418     0.54508    
 0.60988     0.31302     0.28256     0.70073      1.0121      1.0413      1.4029      2.4564      3.7786      5.1804    
  7.4714      11.646      18.062      27.151      40.416      60.126      88.845      129.81      185.42      251.88    
  315.25      351.41      344.02      305.87      254.62      252.38      266.04      287.15      312.02      346.39    
  396.82      469.03      566.32      674.73      768.34      819.01      804.20      716.44      572.62      411.36    
  272.14      171.07      104.37      64.029      39.577      24.252      14.815      9.0822      5.3838      3.0761    
  2.0031      1.5894      1.1171     0.54652     0.31192     0.43727     0.49240     0.35104     0.34623     0.61130    
 0.86079     0.99122      1.3616      2.2277      3.3869      4.7349      6.7920      10.315      15.756      23.566    
  34.768      50.867      73.585      105.03      146.84      196.73      245.53      278.89      285.88      271.38    
  213.90      210.36      212.08      217.27      226.10      242.59      271.90      315.87      372.87      436.52    
  490.95      517.12      501.46      443.04      355.96      262.81      181.30      118.47      75.808      48.638    
  31.122      19.522      12.009      7.3431      4.4663      2.7412      1.8311      1.3519     0.93520     0.53439    
 0.33517     0.35823     0.40006     0.36519     0.38406     0.53966     0.73016     0.91607      1.2796      1.9840    
  2.9716      4.2062      5.9907      8.8558      13.269      19.680      28.770      41.429      58.643      81.555    
  111.04      145.91      181.02      208.27      221.15      220.30      161.77      158.95      156.83      156.00    
  157.51      164.07      178.94      203.34      234.73      267.17      293.09      303.44      291.94      259.18    
  212.59      161.86      115.70      79.413      53.568      35.845      23.571      15.030      9.3194      5.7480    
  3.6195      2.3652      1.6194      1.1405     0.77311     0.48542     0.32873     0.30592     0.33399     0.35159    
 0.38663     0.48082     0.62356     0.81952      1.1568      1.7316      2.5552      3.6342      5.1351      7.4019    
  10.841      15.876      22.979      32.637      45.301      61.420      81.279      104.21      127.59      147.16    
  159.23      163.15      112.99      111.34      109.29      107.68      107.37      109.87      116.77      128.62    
  144.01      159.67      171.26      174.58      167.16      149.39      124.59      97.663      72.926      52.699    
  37.241      25.717      17.201      11.088      6.9690      4.4057      2.8947      1.9850      1.3827     0.94747    
 0.62889     0.41412     0.29971     0.26896     0.28556     0.31674     0.35794     0.42515     0.53515     0.71256    
  1.0070      1.4760      2.1521      3.0611      4.2938      6.0560      8.6542      12.447      17.789      24.951    
  34.075      45.199      58.248      72.751      87.408      100.10      108.79      112.76      75.505      74.596    
  73.351      72.446      72.360      73.640      76.820      82.000      88.496      94.851      99.168      99.635    
  95.157      85.883      73.261      59.426      46.274      34.859      25.434      17.888      12.077      7.8755    
  5.0757      3.3439      2.2991      1.6257      1.1372     0.76519     0.50092     0.33998     0.26166     0.23799    
 0.24616     0.27210     0.31094     0.36814     0.45921     0.60888     0.85175      1.2284      1.7747      2.5209    
  3.5169      4.8752      6.7971      9.5529      13.413      18.553      24.987      32.579      41.090      50.138    
  59.039      66.770      72.280      75.067      49.451      48.902      48.229      47.926      48.209      49.137    
  50.701      52.787      55.090      57.105      58.179      57.644      55.025      50.280      43.895      36.691    
  29.475      22.785      16.906      12.001      8.1796      5.4484      3.6554      2.5345      1.8130      1.2981    
 0.89902     0.59581     0.39160     0.27749     0.22661     0.21004     0.21146     0.22725     0.25934     0.31205    
 0.39354     0.51831     0.71020      1.0032      1.4341      2.0330      2.8275      3.8718      5.2792      7.2261    
  9.9075      13.455      17.861      22.970      28.520      34.192      39.587      44.193      47.484      49.177    
  32.423      32.041      31.592      31.432      31.696      32.334      33.196      34.109      34.906      35.421    
  35.460      34.786      33.175      30.539      27.014      22.926      18.663      14.563      10.879      7.7963    
  5.4222      3.7481      2.6458      1.9236      1.4099      1.0056     0.68313     0.44893     0.30474     0.23179    
 0.19997     0.18557     0.18000     0.18634     0.21158     0.26115     0.33732     0.44314     0.59147     0.81082    
  1.1384      1.6049      2.2284      3.0298      4.0594      5.4133      7.2162      9.5678      12.477      15.834    
  19.433      23.038      26.395      29.223      31.238      32.274      21.501      21.227      20.832      20.570    
  20.577      20.865      21.353      21.918      22.425      22.744      22.734      22.242      21.133      19.363    
  17.036      14.377      11.652      9.0887      6.8442      5.0098      3.6151      2.6235      1.9411      1.4531    
  1.0696     0.75163     0.50203     0.33342     0.24119     0.20000     0.18002     0.16389     0.15086     0.14972    
 0.17018     0.21706     0.28832     0.37939     0.49396     0.65294     0.89063      1.2393      1.7160      2.3260    
  3.0815      4.0222      5.2167      6.7325      8.5883      10.724      13.016      15.315      17.466      19.302    
  20.643      21.370      14.173      14.013      13.700      13.392      13.205      13.195      13.359      13.644    
  13.957      14.180      14.185      13.850      13.092      11.907      10.396      8.7298      7.0880      5.5991    
  4.3275      3.2927      2.4881      1.8842      1.4315      1.0764     0.78270     0.54175     0.36242     0.25096    
 0.19692     0.17529     0.16086     0.14201     0.12329     0.11739     0.13484     0.17839     0.24311     0.32117    
 0.41063     0.52414     0.68957     0.93838      1.2896      1.7443      2.2977      2.9589      3.7590      4.7348    
  5.8992      7.2221      8.6372      10.064      11.417      12.599      13.499      14.030      9.0924      9.0446    
  8.8799      8.6687      8.4693      8.3182      8.2248      8.1710      8.1185      8.0233      7.8459      7.5520    
  7.1145      6.5253      5.8105      5.0277      4.2427      3.5046      2.8393      2.2587      1.7680      1.3645    
  1.0362     0.76774     0.54946     0.38055     0.26351     0.19564     0.16454     0.15084     0.13724     0.11737    
 0.97674E-01 0.90648E-01 0.10556     0.14368     0.19943     0.26469     0.33516     0.41738     0.53129     0.70296    
 0.95077      1.2775      1.6768      2.1472      2.6990      3.3457      4.0877      4.9036      5.7554      6.5997    
  7.3920      8.0835      8.6212      8.9615      5.8327      5.8526      5.8087      5.7190      5.5991      5.4620    
  5.3129      5.1466      4.9540      4.7335      4.4952      4.2495      3.9948      3.7176      3.4059      3.0605    
  2.6932      2.3182      1.9467      1.5889      1.2568     0.96331     0.71747     0.52179     0.37356     0.26768    
 0.19827     0.15794     0.13667     0.12302     0.10833     0.90731E-01 0.75496E-01 0.70954E-01 0.83309E-01 0.11361    
 0.15786     0.20973     0.26525     0.32785     0.40998     0.52862     0.69724     0.92108      1.1995      1.5324    
  1.9218      2.3675      2.8594      3.3770      3.8950      4.3900      4.8413      5.2277      5.5283      5.7295    
  3.9252      3.9543      3.9482      3.9142      3.8594      3.7968      3.7430      3.7070      3.6822      3.6476    
  3.5747      3.4360      3.2156      2.9191      2.5755      2.2258      1.9018      1.6128      1.3488      1.0974    
 0.85838     0.64426     0.47010     0.34192     0.25429     0.19593     0.15653     0.12914     0.10901     0.92598E-01
 0.78056E-01 0.65873E-01 0.58369E-01 0.58514E-01 0.68796E-01 0.90114E-01 0.12107     0.15889     0.20216     0.25325    
 0.31819     0.40428     0.51792     0.66435     0.84874      1.0761      1.3486      1.6608      1.9979      2.3400    
  2.6702      2.9800      3.2642      3.5131      3.7117      3.8485      2.6415      2.6523      2.6475      2.6355    
  2.6187      2.6022      2.5986      2.6202      2.6656      2.7123      2.7201      2.6474      2.4719      2.2052    
  1.8903      1.5806      1.3119      1.0895     0.89693     0.71792     0.55077     0.40682     0.29789     0.22587    
 0.18183     0.15251     0.12774     0.10367     0.81385E-01 0.63523E-01 0.51813E-01 0.46492E-01 0.46839E-01 0.51864E-01
 0.60840E-01 0.73726E-01 0.91397E-01 0.11557     0.14846     0.19213     0.24765     0.31486     0.39373     0.48709    
 0.60223     0.74848     0.93101      1.1450      1.3754      1.6045      1.8208      2.0223      2.2098      2.3773    
  2.5111      2.5990      1.6259      1.6216      1.6233      1.6340      1.6423      1.6300      1.5833      1.5002    
  1.3913      1.2749      1.1696      1.0856      1.0213     0.96619     0.90893     0.84185     0.76105     0.66505    
 0.55617     0.44278     0.33777     0.25314     0.19459     0.15961     0.13936     0.12305     0.10327     0.79415E-01
 0.56465E-01 0.40137E-01 0.32889E-01 0.33672E-01 0.39824E-01 0.48265E-01 0.56118E-01 0.62285E-01 0.69164E-01 0.82046E-01
 0.10602     0.14303     0.19118     0.24608     0.30361     0.36375     0.43298     0.52184     0.63742     0.77687    
 0.92807      1.0770      1.2150      1.3390      1.4472      1.5345      1.5936      1.6218      1.0157      1.0011    
 0.99577      1.0015      1.0069     0.99096     0.93269     0.82265     0.67099     0.50792     0.37326     0.29838    
 0.29063     0.33073     0.38451     0.42029     0.42113     0.38737     0.33128     0.26879     0.21258     0.16927    
 0.14002     0.12210     0.10987     0.96700E-01 0.78579E-01 0.56888E-01 0.37194E-01 0.24823E-01 0.21598E-01 0.26029E-01
 0.34952E-01 0.44420E-01 0.50655E-01 0.52394E-01 0.52853E-01 0.58527E-01 0.75236E-01 0.10479     0.14441     0.18844    
 0.23146     0.27204     0.31510     0.36939     0.44085     0.52756     0.62115     0.71309     0.79897     0.87719    
 0.94468     0.99538      1.0233      1.0275     0.79843     0.77597     0.74470     0.71536     0.69374     0.68235    
 0.68324     0.69822     0.72569     0.75724     0.77752     0.76902     0.72047     0.63386     0.52480     0.41516    
 0.32271     0.25458     0.20781     0.17479     0.14886     0.12701     0.10905     0.94897E-01 0.82655E-01 0.69445E-01
 0.53970E-01 0.37934E-01 0.24787E-01 0.17342E-01 0.16532E-01 0.21499E-01 0.29822E-01 0.37831E-01 0.42117E-01 0.41990E-01
 0.40638E-01 0.43507E-01 0.55125E-01 0.76766E-01 0.10609     0.13852     0.16983     0.19907     0.22969     0.26706    
 0.31391     0.36786     0.42360     0.47789     0.53247     0.59170     0.65680     0.72139     0.77293     0.79973    
 0.61074     0.59178     0.55764     0.52038     0.49113     0.48138     0.50392     0.56811     0.67012     0.78575    
 0.87450     0.89630     0.83220     0.69561     0.52574     0.36737     0.25021     0.18021     0.14520     0.12744    
 0.11386     0.99212E-01 0.83665E-01 0.68830E-01 0.55439E-01 0.43392E-01 0.32777E-01 0.24222E-01 0.18370E-01 0.15473E-01
 0.15575E-01 0.18552E-01 0.23497E-01 0.28376E-01 0.31099E-01 0.31401E-01 0.31522E-01 0.34814E-01 0.43592E-01 0.58043E-01
 0.76623E-01 0.97224E-01 0.11849     0.14080     0.16614     0.19636     0.23104     0.26705     0.30088     0.33213    
 0.36499     0.40589     0.45813     0.51715     0.57064     0.60447     0.29565     0.29179     0.28977     0.28914    
 0.28533     0.27124     0.24129     0.19518     0.13912     0.83862E-01 0.40999E-01 0.18876E-01 0.19560E-01 0.38173E-01
 0.65060E-01 0.89865E-01 0.10550     0.11007     0.10598     0.97053E-01 0.85786E-01 0.72843E-01 0.58502E-01 0.44085E-01
 0.31705E-01 0.22930E-01 0.17985E-01 0.16038E-01 0.15819E-01 0.16089E-01 0.16142E-01 0.16176E-01 0.16871E-01 0.18415E-01
 0.20289E-01 0.22255E-01 0.25169E-01 0.30251E-01 0.37687E-01 0.46503E-01 0.55919E-01 0.66472E-01 0.79705E-01 0.97114E-01
 0.11932     0.14552     0.17320     0.19899     0.22062     0.23839     0.25434     0.26973     0.28368     0.29400    
 0.29908     0.29903     0.10807     0.11331     0.13045     0.15156     0.16413     0.15238     0.10130     0.38943E-02
 -.13089     -.27510     -.38845     -.43463     -.39919     -.29765     -.16766     -.50069E-01 0.29346E-01 0.66822E-01
 0.74605E-01 0.68599E-01 0.58943E-01 0.48454E-01 0.36893E-01 0.25177E-01 0.15813E-01 0.10770E-01 0.10035E-01 0.12044E-01
 0.14763E-01 0.16365E-01 0.15853E-01 0.13665E-01 0.11450E-01 0.10795E-01 0.12272E-01 0.15745E-01 0.21027E-01 0.27615E-01
 0.34138E-01 0.39059E-01 0.42390E-01 0.46355E-01 0.54054E-01 0.67446E-01 0.86288E-01 0.10822     0.12966     0.14753    
 0.16104     0.17154     0.17973     0.18309     0.17722     0.16051     0.13752     0.11727     0.17102     0.17125    
 0.17006     0.16716     0.16342     0.16176     0.16626     0.17959     0.20022     0.22190     0.23599     0.23536    
 0.21761     0.18604     0.14798     0.11142     0.81945E-01 0.61493E-01 0.48974E-01 0.41615E-01 0.36187E-01 0.30157E-01
 0.22709E-01 0.14959E-01 0.89740E-02 0.63028E-02 0.70953E-02 0.10121E-01 0.13347E-01 0.14831E-01 0.13737E-01 0.10831E-01
 0.79128E-02 0.66569E-02 0.79401E-02 0.11909E-01 0.18034E-01 0.24867E-01 0.30312E-01 0.32960E-01 0.33470E-01 0.34535E-01
 0.39301E-01 0.49495E-01 0.64403E-01 0.81081E-01 0.95816E-01 0.10640     0.11367     0.12073     0.13015     0.14174    
 0.15304     0.16165     0.16692     0.16970     0.21229     0.20794     0.19192     0.16956     0.15106     0.15174    
 0.18836     0.27046     0.39050     0.52010     0.61798     0.64757     0.59520     0.47738     0.33208     0.19945    
 0.10443     0.50942E-01 0.28200E-01 0.21540E-01 0.20061E-01 0.18500E-01 0.15566E-01 0.11805E-01 0.83651E-02 0.64158E-02
 0.66138E-02 0.85642E-02 0.10801E-01 0.11660E-01 0.10499E-01 0.81139E-02 0.59950E-02 0.53090E-02 0.66103E-02 0.10048E-01
 0.15236E-01 0.20879E-01 0.25123E-01 0.26889E-01 0.26984E-01 0.27802E-01 0.31784E-01 0.39851E-01 0.50765E-01 0.61729E-01
 0.70035E-01 0.74932E-01 0.78359E-01 0.83817E-01 0.94328E-01 0.11113     0.13361     0.15943     0.18455     0.20374    
 0.60569E-01 0.62496E-01 0.63664E-01 0.61456E-01 0.55372E-01 0.46460E-01 0.35585E-01 0.22447E-01 0.64135E-02 -.11637E-01
 -.28333E-01 -.38860E-01 -.39502E-01 -.30031E-01 -.14338E-01 0.12791E-02 0.11433E-01 0.14518E-01 0.13000E-01 0.10868E-01
 0.10473E-01 0.11440E-01 0.12066E-01 0.11301E-01 0.94436E-02 0.75439E-02 0.65468E-02 0.67393E-02 0.75655E-02 0.79848E-02
 0.73634E-02 0.61218E-02 0.53284E-02 0.56774E-02 0.71141E-02 0.93889E-02 0.12451E-01 0.16004E-01 0.19123E-01 0.20967E-01
 0.21968E-01 0.23856E-01 0.28199E-01 0.34928E-01 0.42297E-01 0.48196E-01 0.51647E-01 0.53508E-01 0.55937E-01 0.60701E-01
 0.67365E-01 0.73057E-01 0.74549E-01 0.71088E-01 0.65294E-01 0.61095E-01 -.52556E-01 -.44774E-01 -.29024E-01 -.14311E-01
 -.93320E-02 -.23803E-01 -.69288E-01 -.15443     -.27527     -.40833     -.51488     -.55715     -.51766     -.40930    
 -.26924     -.14023     -.50867E-01 -.62644E-02 0.69073E-02 0.70136E-02 0.61796E-02 0.75631E-02 0.94562E-02 0.10081E-01
 0.92362E-02 0.75933E-02 0.59303E-02 0.48924E-02 0.46889E-02 0.48965E-02 0.49819E-02 0.50594E-02 0.57231E-02 0.70818E-02
 0.84657E-02 0.93503E-02 0.10134E-01 0.11566E-01 0.13699E-01 0.15986E-01 0.18377E-01 0.21673E-01 0.26451E-01 0.31977E-01
 0.36575E-01 0.39106E-01 0.40029E-01 0.41165E-01 0.44348E-01 0.49536E-01 0.53399E-01 0.49993E-01 0.34412E-01 0.74451E-02
 -.22904E-01 -.45412E-01 0.50550E-01 0.53782E-01 0.52931E-01 0.46201E-01 0.36396E-01 0.29016E-01 0.28018E-01 0.33070E-01
 0.40337E-01 0.45376E-01 0.45547E-01 0.40884E-01 0.33698E-01 0.27120E-01 0.22992E-01 0.20631E-01 0.17901E-01 0.13690E-01
 0.90805E-02 0.60142E-02 0.52800E-02 0.61117E-02 0.72859E-02 0.79918E-02 0.78181E-02 0.66666E-02 0.49687E-02 0.35441E-02
 0.29100E-02 0.29556E-02 0.34789E-02 0.46689E-02 0.66404E-02 0.87249E-02 0.98091E-02 0.95170E-02 0.87153E-02 0.86869E-02
 0.10061E-01 0.12700E-01 0.16313E-01 0.20737E-01 0.25579E-01 0.29928E-01 0.32752E-01 0.33780E-01 0.34053E-01 0.35507E-01
 0.39621E-01 0.46083E-01 0.52599E-01 0.56261E-01 0.55596E-01 0.51798E-01 0.48124E-01 0.47610E-01 0.15126     0.14970    
 0.13326     0.10689     0.83603E-01 0.82346E-01 0.12121     0.20794     0.33213     0.46392     0.56238     0.59241    
 0.54208     0.42925     0.29189     0.16834     0.80941E-01 0.32147E-01 0.11530E-01 0.58093E-02 0.53826E-02 0.58782E-02
 0.63949E-02 0.69263E-02 0.70055E-02 0.61057E-02 0.44957E-02 0.30570E-02 0.23422E-02 0.23057E-02 0.29501E-02 0.45894E-02
 0.71189E-02 0.94711E-02 0.10371E-01 0.96074E-02 0.82601E-02 0.77277E-02 0.88013E-02 0.11557E-01 0.15661E-01 0.20516E-01
 0.25300E-01 0.29117E-01 0.31329E-01 0.32014E-01 0.32292E-01 0.33985E-01 0.38446E-01 0.45629E-01 0.54691E-01 0.65629E-01
 0.79819E-01 0.98366E-01 0.11981     0.13953     0.50550E-01 0.53782E-01 0.52931E-01 0.46201E-01 0.36396E-01 0.29016E-01
 0.28018E-01 0.33070E-01 0.40337E-01 0.45376E-01 0.45547E-01 0.40884E-01 0.33698E-01 0.27120E-01 0.22992E-01 0.20631E-01
 0.17901E-01 0.13690E-01 0.90805E-02 0.60142E-02 0.52800E-02 0.61117E-02 0.72859E-02 0.79918E-02 0.78181E-02 0.66666E-02
 0.49687E-02 0.35441E-02 0.29100E-02 0.29556E-02 0.34789E-02 0.46689E-02 0.66404E-02 0.87249E-02 0.98091E-02 0.95170E-02
 0.87153E-02 0.86869E-02 0.10061E-01 0.12700E-01 0.16313E-01 0.20737E-01 0.25579E-01 0.29928E-01 0.32752E-01 0.33780E-01
 0.34053E-01 0.35507E-01 0.39621E-01 0.46083E-01 0.52599E-01 0.56261E-01 0.55596E-01 0.51798E-01 0.48124E-01 0.47610E-01
 -.52556E-01 -.44774E-01 -.29024E-01 -.14311E-01 -.93320E-02 -.23803E-01 -.69288E-01 -.15443     -.27527     -.40833    
 -.51488     -.55715     -.51766     -.40930     -.26924     -.14023     -.50867E-01 -.62644E-02 0.69073E-02 0.70136E-02
 0.61796E-02 0.75631E-02 0.94562E-02 0.10081E-01 0.92362E-02 0.75933E-02 0.59303E-02 0.48924E-02 0.46889E-02 0.48965E-02
 0.49819E-02 0.50594E-02 0.57231E-02 0.70818E-02 0.84657E-02 0.93503E-02 0.10134E-01 0.11566E-01 0.13699E-01 0.15986E-01
 0.18377E-01 0.21673E-01 0.26451E-01 0.31977E-01 0.36575E-01 0.39106E-01 0.40029E-01 0.41165E-01 0.44348E-01 0.49536E-01
 0.53399E-01 0.49993E-01 0.34412E-01 0.74451E-02 -.22904E-01 -.45412E-01 0.60569E-01 0.62496E-01 0.63664E-01 0.61456E-01
 0.55372E-01 0.46460E-01 0.35585E-01 0.22447E-01 0.64135E-02 -.11637E-01 -.28333E-01 -.38860E-01 -.39502E-01 -.30031E-01
 -.14338E-01 0.12791E-02 0.11433E-01 0.14518E-01 0.13000E-01 0.10868E-01 0.10473E-01 0.11440E-01 0.12066E-01 0.11301E-01
 0.94436E-02 0.75439E-02 0.65468E-02 0.67393E-02 0.75655E-02 0.79848E-02 0.73634E-02 0.61218E-02 0.53284E-02 0.56774E-02
 0.71141E-02 0.93889E-02 0.12451E-01 0.16004E-01 0.19123E-01 0.20967E-01 0.21968E-01 0.23856E-01 0.28199E-01 0.34928E-01
 0.42297E-01 0.48196E-01 0.51647E-01 0.53508E-01 0.55937E-01 0.60701E-01 0.67365E-01 0.73057E-01 0.74549E-01 0.71088E-01
 0.65294E-01 0.61095E-01 0.21229     0.20794     0.19192     0.16956     0.15106     0.15174     0.18836     0.27046    
 0.39050     0.52010     0.61798     0.64757     0.59520     0.47738     0.33208     0.19945     0.10443     0.50942E-01
 0.28200E-01 0.21540E-01 0.20061E-01 0.18500E-01 0.15566E-01 0.11805E-01 0.83651E-02 0.64158E-02 0.66138E-02 0.85642E-02
 0.10801E-01 0.11660E-01 0.10499E-01 0.81139E-02 0.59950E-02 0.53090E-02 0.66103E-02 0.10048E-01 0.15236E-01 0.20879E-01
 0.25123E-01 0.26889E-01 0.26984E-01 0.27802E-01 0.31784E-01 0.39851E-01 0.50765E-01 0.61729E-01 0.70035E-01 0.74932E-01
 0.78359E-01 0.83817E-01 0.94328E-01 0.11113     0.13361     0.15943     0.18455     0.20374     0.17102     0.17125    
 0.17006     0.16716     0.16342     0.16176     0.16626     0.17959     0.20022     0.22190     0.23599     0.23536    
 0.21761     0.18604     0.14798     0.11142     0.81945E-01 0.61493E-01 0.48974E-01 0.41615E-01 0.36187E-01 0.30157E-01
 0.22709E-01 0.14959E-01 0.89740E-02 0.63028E-02 0.70953E-02 0.10121E-01 0.13347E-01 0.14831E-01 0.13737E-01 0.10831E-01
 0.79128E-02 0.66569E-02 0.79401E-02 0.11909E-01 0.18034E-01 0.24867E-01 0.30312E-01 0.32960E-01 0.33470E-01 0.34535E-01
 0.39301E-01 0.49495E-01 0.64403E-01 0.81081E-01 0.95816E-01 0.10640     0.11367     0.12073     0.13015     0.14174    
 0.15304     0.16165     0.16692     0.16970     0.10807     0.11331     0.13045     0.15156     0.16413     0.15238    
 0.10130     0.38943E-02 -.13089     -.27510     -.38845     -.43463     -.39919     -.29765     -.16766     -.50069E-01
 0.29346E-01 0.66822E-01 0.74605E-01 0.68599E-01 0.58943E-01 0.48454E-01 0.36893E-01 0.25177E-01 0.15813E-01 0.10770E-01
 0.10035E-01 0.12044E-01 0.14763E-01 0.16365E-01 0.15853E-01 0.13665E-01 0.11450E-01 0.10795E-01 0.12272E-01 0.15745E-01
 0.21027E-01 0.27615E-01 0.34138E-01 0.39059E-01 0.42390E-01 0.46355E-01 0.54054E-01 0.67446E-01 0.86288E-01 0.10822    
 0.12966     0.14753     0.16104     0.17154     0.17973     0.18309     0.17722     0.16051     0.13752     0.11727    
 0.29565     0.29179     0.28977     0.28914     0.28533     0.27124     0.24129     0.19518     0.13912     0.83862E-01
 0.40999E-01 0.18876E-01 0.19560E-01 0.38173E-01 0.65060E-01 0.89865E-01 0.10550     0.11007     0.10598     0.97053E-01
 0.85786E-01 0.72843E-01 0.58502E-01 0.44085E-01 0.31705E-01 0.22930E-01 0.17985E-01 0.16038E-01 0.15819E-01 0.16089E-01
 0.16142E-01 0.16176E-01 0.16871E-01 0.18415E-01 0.20289E-01 0.22255E-01 0.25169E-01 0.30251E-01 0.37687E-01 0.46503E-01
 0.55919E-01 0.66472E-01 0.79705E-01 0.97114E-01 0.11932     0.14552     0.17320     0.19899     0.22062     0.23839    
 0.25434     0.26973     0.28368     0.29400     0.29908     0.29903     0.61074     0.59178     0.55764     0.52038    
 0.49113     0.48138     0.50392     0.56811     0.67012     0.78575     0.87450     0.89630     0.83220     0.69561    
 0.52574     0.36737     0.25021     0.18021     0.14520     0.12744     0.11386     0.99212E-01 0.83665E-01 0.68830E-01
 0.55439E-01 0.43392E-01 0.32777E-01 0.24222E-01 0.18370E-01 0.15473E-01 0.15575E-01 0.18552E-01 0.23497E-01 0.28376E-01
 0.31099E-01 0.31401E-01 0.31522E-01 0.34814E-01 0.43592E-01 0.58043E-01 0.76623E-01 0.97224E-01 0.11849     0.14080    
 0.16614     0.19636     0.23104     0.26705     0.30088     0.33213     0.36499     0.40589     0.45813     0.51715    
 0.57064     0.60447     0.79843     0.77597     0.74470     0.71536     0.69374     0.68235     0.68324     0.69822    
 0.72569     0.75724     0.77752     0.76902     0.72047     0.63386     0.52480     0.41516     0.32271     0.25458    
 0.20781     0.17479     0.14886     0.12701     0.10905     0.94897E-01 0.82655E-01 0.69445E-01 0.53970E-01 0.37934E-01
 0.24787E-01 0.17342E-01 0.16532E-01 0.21499E-01 0.29822E-01 0.37831E-01 0.42117E-01 0.41990E-01 0.40638E-01 0.43507E-01
 0.55125E-01 0.76766E-01 0.10609     0.13852     0.16983     0.19907     0.22969     0.26706     0.31391     0.36786    
 0.42360     0.47789     0.53247     0.59170     0.65680     0.72139     0.77293     0.79973      1.0157      1.0011    
 0.99577      1.0015      1.0069     0.99096     0.93269     0.82265     0.67099     0.50792     0.37326     0.29838    
 0.29063     0.33073     0.38451     0.42029     0.42113     0.38737     0.33128     0.26879     0.21258     0.16927    
 0.14002     0.12210     0.10987     0.96700E-01 0.78579E-01 0.56888E-01 0.37194E-01 0.24823E-01 0.21598E-01 0.26029E-01
 0.34952E-01 0.44420E-01 0.50655E-01 0.52394E-01 0.52853E-01 0.58527E-01 0.75236E-01 0.10479     0.14441     0.18844    
 0.23146     0.27204     0.31510     0.36939     0.44085     0.52756     0.62115     0.71309     0.79897     0.87719    
 0.94468     0.99538      1.0233      1.0275      1.6259      1.6216      1.6233      1.6340      1.6423      1.6300    
  1.5833      1.5002      1.3913      1.2749      1.1696      1.0856      1.0213     0.96619     0.90893     0.84185    
 0.76105     0.66505     0.55617     0.44278     0.33777     0.25314     0.19459     0.15961     0.13936     0.12305    
 0.10327     0.79415E-01 0.56465E-01 0.40137E-01 0.32889E-01 0.33672E-01 0.39824E-01 0.48265E-01 0.56118E-01 0.62285E-01
 0.69164E-01 0.82046E-01 0.10602     0.14303     0.19118     0.24608     0.30361     0.36375     0.43298     0.52184    
 0.63742     0.77687     0.92807      1.0770      1.2150      1.3390      1.4472      1.5345      1.5936      1.6218    
  2.6415      2.6523      2.6475      2.6355      2.6187      2.6022      2.5986      2.6202      2.6656      2.7123    
  2.7201      2.6474      2.4719      2.2052      1.8903      1.5806      1.3119      1.0895     0.89693     0.71792    
 0.55077     0.40682     0.29789     0.22587     0.18183     0.15251     0.12774     0.10367     0.81385E-01 0.63523E-01
 0.51813E-01 0.46492E-01 0.46839E-01 0.51864E-01 0.60840E-01 0.73726E-01 0.91397E-01 0.11557     0.14846     0.19213    
 0.24765     0.31486     0.39373     0.48709     0.60223     0.74848     0.93101      1.1450      1.3754      1.6045    
  1.8208      2.0223      2.2098      2.3773      2.5111      2.5990      3.9252      3.9543      3.9482      3.9142    
  3.8594      3.7968      3.7430      3.7070      3.6822      3.6476      3.5747      3.4360      3.2156      2.9191    
  2.5755      2.2258      1.9018      1.6128      1.3488      1.0974     0.85838     0.64426     0.47010     0.34192    
 0.25429     0.19593     0.15653     0.12914     0.10901     0.92598E-01 0.78056E-01 0.65873E-01 0.58369E-01 0.58514E-01
 0.68796E-01 0.90114E-01 0.12107     0.15889     0.20216     0.25325     0.31819     0.40428     0.51792     0.66435    
 0.84874      1.0761      1.3486      1.6608      1.9979      2.3400      2.6702      2.9800      3.2642      3.5131    
  3.7117      3.8485      5.8327      5.8526      5.8087      5.7190      5.5991      5.4620      5.3129      5.1466    
  4.9540      4.7335      4.4952      4.2495      3.9948      3.7176      3.4059      3.0605      2.6932      2.3182    
  1.9467      1.5889      1.2568     0.96331     0.71747     0.52179     0.37356     0.26768     0.19827     0.15794    
 0.13667     0.12302     0.10833     0.90731E-01 0.75496E-01 0.70954E-01 0.83309E-01 0.11361     0.15786     0.20973    
 0.26525     0.32785     0.40998     0.52862     0.69724     0.92108      1.1995      1.5324      1.9218      2.3675    
  2.8594      3.3770      3.8950      4.3900      4.8413      5.2277      5.5283      5.7295      9.0924      9.0446    
  8.8799      8.6687      8.4693      8.3182      8.2248      8.1710      8.1185      8.0233      7.8459      7.5520    
  7.1145      6.5253      5.8105      5.0277      4.2427      3.5046      2.8393      2.2587      1.7680      1.3645    
  1.0362     0.76774     0.54946     0.38055     0.26351     0.19564     0.16454     0.15084     0.13724     0.11737    
 0.97674E-01 0.90648E-01 0.10556     0.14368     0.19943     0.26469     0.33516     0.41738     0.53129     0.70296    