    2    2    1    1
  0.1080000E+03  0.6000000E-09  0.6000000E-09  0.6000000E-09  0.5000000E-15
  1.000000000000000E-004
  CAR 
 unknown system                          
     10      1      6
 
  0.0000000E+00  0.0000000E+00  0.0000000E+00  0.1000000E+01
    1      -29.155345
    2      -13.369489
    3      -11.392799
    4      -11.392330
    5       -8.345197
    6       -1.054008
