    2    2    1    1
  0.1080000E+03  0.6000000E-09  0.6000000E-09  0.6000000E-09  0.5000000E-15
  1.000000000000000E-004
  CAR 
 unknown system                          
     10      1      6
 
  0.0000000E+00  0.0000000E+00  0.0000000E+00  0.1000000E+01
    1      -27.816582
    2      -13.434145
    3      -10.603561
    4      -10.603560
    5       -8.522405
    6       -1.907131
