 vasp.5.3.5 31Mar14 (build Jan 09 2015 16:57:47) complex                        
  
 POSCAR found :  2 types and       2 ions
 LDA part: xc-table for Pade appr. of Perdew
 POSCAR found :  2 types and       2 ions
 found WAVECAR, reading the header
 POSCAR, INCAR and KPOINTS ok, starting setup
 WARNING: small aliasing (wrap around) errors must be expected
 FFT: planning ...
 reading WAVECAR
 the WAVECAR file was read successfully
 initial charge from wavefunction
 entering main loop
       N       E                     dE             d eps       ncg     rms          rms(c)
DAV:   1    -0.229525968532E+02   -0.22953E+02   -0.30260E+02    12   0.269E+02    0.136E+01
DAV:   2    -0.169830563111E+02    0.59695E+01   -0.13031E+01    12   0.502E+01    0.755E+00
DAV:   3    -0.147816339630E+02    0.22014E+01   -0.10985E+01    12   0.447E+01    0.241E+00
DAV:   4    -0.147500210656E+02    0.31613E-01   -0.92177E-01    12   0.119E+01    0.137E+00
DAV:   5    -0.147448803806E+02    0.51407E-02   -0.11126E-01    12   0.403E+00    0.651E-01
DAV:   6    -0.147530648578E+02   -0.81845E-02   -0.33602E-02    18   0.190E+00    0.222E-01
DAV:   7    -0.147572302845E+02   -0.41654E-02   -0.11031E-02    18   0.101E+00    0.107E-01
DAV:   8    -0.147629206751E+02   -0.56904E-02   -0.24470E-03    12   0.493E-01    0.862E-02
DAV:   9    -0.147645585645E+02   -0.16379E-02   -0.14954E-03    18   0.392E-01    0.370E-02
DAV:  10    -0.147656402220E+02   -0.10817E-02   -0.37606E-04    18   0.168E-01    0.117E-02
DAV:  11    -0.147657624371E+02   -0.12222E-03   -0.32945E-05     6   0.571E-02    0.709E-03
DAV:  12    -0.147658452854E+02   -0.82848E-04   -0.32814E-05     6   0.485E-02
   1 F= -.14765845E+02 E0= -.14765845E+02  d E =0.103437E-19
 writing wavefunctions
