<?xml version="1.0" encoding="ISO-8859-1"?>
<modeling>
 <generator>
  <i name="program" type="string">vasp </i>
  <i name="version" type="string">5.3.5  </i>
  <i name="subversion" type="string">31Mar14 (build Jan 09 2015 16:57:47) complex                          serial </i>
  <i name="platform" type="string">LinuxIFC </i>
  <i name="date" type="string">2016 01 21 </i>
  <i name="time" type="string">09:54:53 </i>
 </generator>
 <incar>
  <i type="string" name="PREC">normal</i>
  <i name="ENCUT">    350.00000000</i>
  <i type="int" name="NBANDS">     6</i>
  <i type="int" name="ISMEAR">     1</i>
  <i name="SIGMA">      0.01000000</i>
 </incar>
 <kpoints>
  <generation param="Monkhorst-Pack">
   <v type="int" name="divisions">       1        1        1 </v>
   <v name="usershift">      0.00000000       0.00000000       0.00000000 </v>
   <v name="genvec1">      1.00000000       0.00000000       0.00000000 </v>
   <v name="genvec2">      0.00000000       1.00000000       0.00000000 </v>
   <v name="genvec3">      0.00000000       0.00000000       1.00000000 </v>
   <v name="shift">      0.00000000       0.00000000       0.00000000 </v>
  </generation>
  <varray name="kpointlist" >
   <v>       0.00000000       0.00000000       0.00000000 </v>
  </varray>
  <varray name="weights" >
   <v>       1.00000000 </v>
  </varray>
 </kpoints>
 <parameters>
  <separator name="general" >
   <i type="string" name="SYSTEM">unknown system</i>
   <i type="logical" name="LCOMPAT"> F  </i>
  </separator>
  <separator name="electronic" >
   <i type="string" name="PREC">normal</i>
   <i name="ENMAX">    350.00000000</i>
   <i name="ENAUG">    644.87300000</i>
   <i name="EDIFF">      0.00010000</i>
   <i type="int" name="IALGO">    38</i>
   <i type="int" name="IWAVPR">     0</i>
   <i type="int" name="NBANDS">     6</i>
   <i name="NELECT">     10.00000000</i>
   <i type="int" name="TURBO">     0</i>
   <i type="int" name="IRESTART">     0</i>
   <i type="int" name="NREBOOT">     0</i>
   <i type="int" name="NMIN">     0</i>
   <i name="EREF">      0.00000000</i>
   <separator name="electronic smearing" >
    <i type="int" name="ISMEAR">     1</i>
    <i name="SIGMA">      0.01000000</i>
    <i name="KSPACING">      0.50000000</i>
    <i type="logical" name="KGAMMA"> T  </i>
   </separator>
   <separator name="electronic projectors" >
    <i type="logical" name="LREAL"> F  </i>
    <v name="ROPT">      0.00000000      0.00000000</v>
    <i type="int" name="LMAXPAW">  -100</i>
    <i type="int" name="LMAXMIX">     2</i>
    <i type="logical" name="NLSPLINE"> F  </i>
   </separator>
   <separator name="electronic startup" >
    <i type="int" name="ISTART">     1</i>
    <i type="int" name="ICHARG">     0</i>
    <i type="int" name="INIWAV">     1</i>
   </separator>
   <separator name="electronic spin" >
    <i type="int" name="ISPIN">     1</i>
    <i type="logical" name="LNONCOLLINEAR"> F  </i>
    <v name="MAGMOM">      1.00000000      1.00000000</v>
    <i name="NUPDOWN">     -1.00000000</i>
    <i type="logical" name="LSORBIT"> F  </i>
    <v name="SAXIS">      0.00000000      0.00000000      1.00000000</v>
    <i type="logical" name="LSPIRAL"> F  </i>
    <v name="QSPIRAL">      0.00000000      0.00000000      0.00000000</v>
    <i type="logical" name="LZEROZ"> F  </i>
   </separator>
   <separator name="electronic exchange-correlation" >
    <i type="logical" name="LASPH"> F  </i>
    <i type="logical" name="LMETAGGA"> F  </i>
   </separator>
   <separator name="electronic convergence" >
    <i type="int" name="NELM">    60</i>
    <i type="int" name="NELMDL">     0</i>
    <i type="int" name="NELMIN">     2</i>
    <i name="ENINI">    350.00000000</i>
    <separator name="electronic convergence detail" >
     <i type="logical" name="LDIAG"> T  </i>
     <i type="logical" name="LSUBROT"> F  </i>
     <i name="WEIMIN">      0.00000000</i>
     <i name="EBREAK">      0.00000417</i>
     <i name="DEPER">      0.30000000</i>
     <i type="int" name="NRMM">     4</i>
     <i name="TIME">      0.40000000</i>
    </separator>
   </separator>
   <separator name="electronic mixer" >
    <i name="AMIX">      0.40000000</i>
    <i name="BMIX">      1.00000000</i>
    <i name="AMIN">      0.10000000</i>
    <i name="AMIX_MAG">      1.60000000</i>
    <i name="BMIX_MAG">      1.00000000</i>
    <separator name="electronic mixer details" >
     <i type="int" name="IMIX">     4</i>
     <i type="int" name="MAXMIX">   -45</i>
     <i name="WC">    100.00000000</i>
     <i type="int" name="INIMIX">     1</i>
     <i type="int" name="MIXPRE">     1</i>
     <i type="int" name="MREMOVE">     5</i>
    </separator>
   </separator>
   <separator name="electronic dipolcorrection" >
    <i type="logical" name="LDIPOL"> F  </i>
    <i type="logical" name="LMONO"> F  </i>
    <i type="int" name="IDIPOL">     0</i>
    <i name="EPSILON">      1.00000000</i>
    <v name="DIPOL">   -100.00000000   -100.00000000   -100.00000000</v>
    <i name="EFIELD">      0.00000000</i>
   </separator>
  </separator>
  <separator name="grids" >
   <i type="int" name="NGX">    28</i>
   <i type="int" name="NGY">    28</i>
   <i type="int" name="NGZ">    28</i>
   <i type="int" name="NGXF">    56</i>
   <i type="int" name="NGYF">    56</i>
   <i type="int" name="NGZF">    56</i>
   <i type="logical" name="ADDGRID"> F  </i>
  </separator>
  <separator name="ionic" >
   <i type="int" name="NSW">     0</i>
   <i type="int" name="IBRION">    -1</i>
   <i type="int" name="ISIF">     2</i>
   <i name="PSTRESS">      0.00000000</i>
   <i name="EDIFFG">      0.00100000</i>
   <i type="int" name="NFREE">     0</i>
   <i name="POTIM">      0.50000000</i>
   <i name="SMASS">     -3.00000000</i>
   <i name="SCALEE">      1.00000000</i>
  </separator>
  <separator name="ionic md" >
   <i name="TEBEG">      0.00010000</i>
   <i name="TEEND">      0.00010000</i>
   <i type="int" name="NBLOCK">     1</i>
   <i type="int" name="KBLOCK">     1</i>
   <i type="int" name="NPACO">   256</i>
   <i name="APACO">     16.00000000</i>
  </separator>
  <separator name="symmetry" >
   <i type="int" name="ISYM">     2</i>
   <i name="SYMPREC">      0.00001000</i>
  </separator>
  <separator name="dos" >
   <i type="logical" name="LORBIT"> F  </i>
   <v name="RWIGS">     -1.00000000     -1.00000000</v>
   <i type="int" name="NEDOS">   301</i>
   <i name="EMIN">     10.00000000</i>
   <i name="EMAX">    -10.00000000</i>
   <i name="EFERMI">      0.00000000</i>
  </separator>
  <separator name="writing" >
   <i type="int" name="NWRITE">     2</i>
   <i type="logical" name="LWAVE"> T  </i>
   <i type="logical" name="LCHARG"> T  </i>
   <i type="logical" name="LPARD"> F  </i>
   <i type="logical" name="LVTOT"> F  </i>
   <i type="logical" name="LVHAR"> F  </i>
   <i type="logical" name="LELF"> F  </i>
   <i type="logical" name="LOPTICS"> F  </i>
   <v name="STM">      0.00000000      0.00000000      0.00000000      0.00000000      0.00000000      0.00000000      0.00000000</v>
  </separator>
  <separator name="performance" >
   <i type="int" name="NPAR">     1</i>
   <i type="int" name="NSIM">     4</i>
   <i type="int" name="NBLK">    -1</i>
   <i type="logical" name="LPLANE"> T  </i>
   <i type="logical" name="LSCALAPACK"> F  </i>
   <i type="logical" name="LSCAAWARE"> F  </i>
   <i type="logical" name="LSCALU"> F  </i>
   <i type="logical" name="LASYNC"> F  </i>
   <i type="logical" name="LORBITALREAL"> F  </i>
  </separator>
  <separator name="miscellaneous" >
   <i type="int" name="IDIOT">     3</i>
   <i type="logical" name="LMUSIC"> F  </i>
   <v name="POMASS">     12.01100000     16.00000000</v>
   <v name="DARWINR">      0.00000000      0.00000000</v>
   <v name="DARWINV">      1.00000000      1.00000000</v>
   <i type="logical" name="LCORR"> T  </i>
  </separator>
  <i type="logical" name="GGA_COMPAT"> T  </i>
  <i type="logical" name="LBERRY"> F  </i>
  <i type="int" name="ICORELEVEL">     0</i>
  <i type="logical" name="LDAU"> F  </i>
  <i type="int" name="I_CONSTRAINED_M">     0</i>
  <separator name="electronic exchange-correlation" >
   <i type="string" name="GGA">--</i>
   <i type="int" name="VOSKOWN">     0</i>
   <i type="logical" name="LHFCALC"> F  </i>
   <i type="string" name="PRECFOCK"></i>
   <i type="logical" name="LSYMGRAD"> F  </i>
   <i type="logical" name="LHFONE"> F  </i>
   <i type="logical" name="LRHFCALC"> F  </i>
   <i type="logical" name="LTHOMAS"> F  </i>
   <i type="logical" name="LMODELHF"> F  </i>
   <i name="ENCUT4O">     -1.00000000</i>
   <i type="int" name="EXXOEP">     0</i>
   <i type="int" name="FOURORBIT">     0</i>
   <i name="AEXX">      0.00000000</i>
   <i name="HFALPHA">      0.00000000</i>
   <i name="MCALPHA">      0.00000000</i>
   <i name="ALDAX">      1.00000000</i>
   <i name="AGGAX">      1.00000000</i>
   <i name="ALDAC">      1.00000000</i>
   <i name="AGGAC">      1.00000000</i>
   <i type="int" name="NKREDX">     1</i>
   <i type="int" name="NKREDY">     1</i>
   <i type="int" name="NKREDZ">     1</i>
   <i type="logical" name="SHIFTRED"> F  </i>
   <i type="logical" name="ODDONLY"> F  </i>
   <i type="logical" name="EVENONLY"> F  </i>
   <i type="int" name="LMAXFOCK">     0</i>
   <i type="int" name="NMAXFOCKAE">     0</i>
   <i type="logical" name="LFOCKAEDFT"> F  </i>
   <i name="HFSCREEN">      0.00000000</i>
   <i name="HFSCREENC">      0.00000000</i>
   <i type="int" name="NBANDSGWLOW">     0</i>
  </separator>
  <separator name="vdW DFT" >
   <i type="logical" name="LUSE_VDW"> F  </i>
   <i name="Zab_VDW">     -0.84910000</i>
   <i name="PARAM1">      0.12340000</i>
   <i name="PARAM2">      1.00000000</i>
   <i name="PARAM3">      0.00000000</i>
  </separator>
  <separator name="model GW" >
   <i type="int" name="MODEL_GW">     0</i>
   <i name="MODEL_EPS0">     64.80000000</i>
   <i name="MODEL_ALPHA">      1.00000000</i>
  </separator>
  <separator name="linear response parameters" >
   <i type="logical" name="LEPSILON"> F  </i>
   <i type="logical" name="LRPA"> F  </i>
   <i type="logical" name="LNABLA"> F  </i>
   <i type="logical" name="LVEL"> F  </i>
   <i type="int" name="KINTER">     0</i>
   <i name="CSHIFT">      0.10000000</i>
   <i name="OMEGAMAX">     -1.00000000</i>
   <i name="DEG_THRESHOLD">      0.00200000</i>
  </separator>
  <separator name="orbital magnetization" >
   <i type="logical" name="NUCIND"> F  </i>
   <v name="MAGPOS">      0.00000000      0.00000000      0.00000000</v>
   <i type="logical" name="LNICSALL"> T  </i>
   <i type="logical" name="ORBITALMAG"> F  </i>
   <i type="logical" name="LMAGBLOCH"> F  </i>
   <i type="logical" name="LCHIMAG"> F  </i>
   <i type="logical" name="LGAUGE"> T  </i>
   <i type="int" name="MAGATOM">     0</i>
   <v name="MAGDIPOL">      0.00000000      0.00000000      0.00000000</v>
   <v name="AVECCONST">      0.00000000      0.00000000      0.00000000</v>
  </separator>
  <separator name="response functions" >
   <i type="logical" name="LADDER"> F  </i>
   <i type="logical" name="LFXC"> F  </i>
   <i type="logical" name="LHARTREE"> T  </i>
   <i type="int" name="IBSE">     0</i>
   <i type="logical" name="LTCTE"> F  </i>
   <i type="logical" name="LTETE"> F  </i>
   <i type="logical" name="LTRIPLET"> F  </i>
   <i type="logical" name="LFXCEPS"> F  </i>
   <i type="logical" name="LFXHEG"> F  </i>
   <i type="logical" name="L2ORDER"> F  </i>
   <i type="logical" name="LUSEW"> F  </i>
   <i name="ENCUTGW">     -2.00000000</i>
   <i name="ENCUTGWSOFT">     -2.00000000</i>
   <i name="ENCUTLF">     -1.00000000</i>
   <i type="int" name="LMAXMP2">    -1</i>
   <i name="SCISSOR">      0.00000000</i>
   <i type="int" name="NOMEGA">     0</i>
   <i type="int" name="NOMEGAR">     0</i>
   <i type="int" name="NBANDSGW">    -1</i>
   <i type="int" name="NBANDSO">    -1</i>
   <i type="int" name="NBANDSV">    -1</i>
   <i type="int" name="NELM">     1</i>
   <i type="int" name="DIM">     3</i>
   <i type="int" name="ANTIRES">     0</i>
   <i name="OMEGAMAX">    -30.00000000</i>
   <i name="OMEGAMIN">    -30.00000000</i>
   <i name="OMEGATL">   -200.00000000</i>
   <i type="int" name="OMEGAGRID">     0</i>
   <i name="CSHIFT">     -0.10000000</i>
   <i type="logical" name="SELFENERGY"> F  </i>
   <i type="logical" name="LSPECTRAL"> F  </i>
   <i type="logical" name="ODDONLYGW"> F  </i>
   <i type="logical" name="EVENONLYGW"> F  </i>
   <i type="int" name="NKREDLFX">     1</i>
   <i type="int" name="NKREDLFY">     1</i>
   <i type="int" name="NKREDLFZ">     1</i>
   <i type="int" name="MAXMEM">  1800</i>
   <i type="int" name="TELESCOPE">     0</i>
   <i type="int" name="TAUPAR">     1</i>
  </separator>
  <separator name="External order field" >
   <i name="OFIELD_KAPPA">      0.00000000</i>
   <v name="OFIELD_K">      0.00000000      0.00000000      0.00000000</v>
   <i name="OFIELD_Q6_NEAR">      0.00000000</i>
   <i name="OFIELD_Q6_FAR">      0.00000000</i>
   <i name="OFIELD_A">      0.00000000</i>
  </separator>
 </parameters>
 <atominfo>
  <atoms>       2 </atoms>
  <types>       2 </types>
  <array name="atoms" >
   <dimension dim="1">ion</dimension>
   <field type="string">element</field>
   <field type="int">atomtype</field>
   <set>
    <rc><c>C </c><c>   1</c></rc>
    <rc><c>O </c><c>   2</c></rc>
   </set>
  </array>
  <array name="atomtypes" >
   <dimension dim="1">type</dimension>
   <field type="int">atomspertype</field>
   <field type="string">element</field>
   <field>mass</field>
   <field>valence</field>
   <field type="string">pseudopotential</field>
   <set>
    <rc><c>   1</c><c>C </c><c>     12.01100000</c><c>      4.00000000</c><c>  PAW_PBE C 08Apr2002                   </c></rc>
    <rc><c>   1</c><c>O </c><c>     16.00000000</c><c>      6.00000000</c><c>  PAW_PBE O 08Apr2002                   </c></rc>
   </set>
  </array>
 </atominfo>
 <structure name="initialpos" >
  <crystal>
   <varray name="basis" >
    <v>       6.00000000       0.00000000       0.00000000 </v>
    <v>       0.00000000       6.00000000       0.00000000 </v>
    <v>       0.00000000       0.00000000       6.00000000 </v>
   </varray>
   <i name="volume">    216.00000000 </i>
   <varray name="rec_basis" >
    <v>       0.16666667       0.00000000       0.00000000 </v>
    <v>       0.00000000       0.16666667       0.00000000 </v>
    <v>       0.00000000       0.00000000       0.16666667 </v>
   </varray>
  </crystal>
  <varray name="positions" >
   <v>       0.00000000       0.00000000       0.00000000 </v>
   <v>       0.18333333       0.01666667       0.01666667 </v>
  </varray>
 </structure>
 <calculation>
  <scstep>
   <time name="dav">    0.07    0.07</time>
   <time name="total">    0.36    0.36</time>
   <energy>
    <i name="alphaZ">      2.02295162 </i>
    <i name="ewald">    -24.54303854 </i>
    <i name="hartreedc">   -439.52701385 </i>
    <i name="XCdc">     39.57555459 </i>
    <i name="pawpsdc">    898.07604685 </i>
    <i name="pawaedc">   -899.80504571 </i>
    <i name="eentropy">      0.00000000 </i>
    <i name="bandstr">   -177.82328227 </i>
    <i name="atom">    579.07123046 </i>
    <i name="e_fr_energy">    -22.95259685 </i>
    <i name="e_wo_entrp">    -22.95259685 </i>
    <i name="e_0_energy">    -22.95259685 </i>
   </energy>
  </scstep>
  <scstep>
   <time name="dav">    0.07    0.07</time>
   <time name="total">    0.33    0.34</time>
   <energy>
    <i name="e_fr_energy">    -16.98305631 </i>
    <i name="e_wo_entrp">    -16.98363610 </i>
    <i name="e_0_energy">    -16.98324957 </i>
   </energy>
  </scstep>
  <scstep>
   <time name="dav">    0.07    0.07</time>
   <time name="total">    0.32    0.34</time>
   <energy>
    <i name="e_fr_energy">    -14.78163396 </i>
    <i name="e_wo_entrp">    -14.78221375 </i>
    <i name="e_0_energy">    -14.78182723 </i>
   </energy>
  </scstep>
  <scstep>
   <time name="dav">    0.11    0.11</time>
   <time name="total">    0.39    0.40</time>
   <energy>
    <i name="e_fr_energy">    -14.75002107 </i>
    <i name="e_wo_entrp">    -14.75060086 </i>
    <i name="e_0_energy">    -14.75021433 </i>
   </energy>
  </scstep>
  <scstep>
   <time name="dav">    0.08    0.08</time>
   <time name="total">    0.38    0.40</time>
   <energy>
    <i name="e_fr_energy">    -14.74488038 </i>
    <i name="e_wo_entrp">    -14.74488038 </i>
    <i name="e_0_energy">    -14.74488038 </i>
   </energy>
  </scstep>
  <scstep>
   <time name="dav">    0.10    0.10</time>
   <time name="total">    0.41    0.42</time>
   <energy>
    <i name="e_fr_energy">    -14.75306486 </i>
    <i name="e_wo_entrp">    -14.75364465 </i>
    <i name="e_0_energy">    -14.75325812 </i>
   </energy>
  </scstep>
  <scstep>
   <time name="dav">    0.11    0.11</time>
   <time name="total">    0.40    0.41</time>
   <energy>
    <i name="e_fr_energy">    -14.75723028 </i>
    <i name="e_wo_entrp">    -14.75723028 </i>
    <i name="e_0_energy">    -14.75723028 </i>
   </energy>
  </scstep>
  <scstep>
   <time name="dav">    0.08    0.08</time>
   <time name="total">    0.38    0.40</time>
   <energy>
    <i name="e_fr_energy">    -14.76292068 </i>
    <i name="e_wo_entrp">    -14.76292068 </i>
    <i name="e_0_energy">    -14.76292068 </i>
   </energy>
  </scstep>
  <scstep>
   <time name="dav">    0.10    0.10</time>
   <time name="total">    0.41    0.43</time>
   <energy>
    <i name="e_fr_energy">    -14.76455856 </i>
    <i name="e_wo_entrp">    -14.76455856 </i>
    <i name="e_0_energy">    -14.76455856 </i>
   </energy>
  </scstep>
  <scstep>
   <time name="dav">    0.11    0.11</time>
   <time name="total">    0.42    0.43</time>
   <energy>
    <i name="e_fr_energy">    -14.76564022 </i>
    <i name="e_wo_entrp">    -14.76564022 </i>
    <i name="e_0_energy">    -14.76564022 </i>
   </energy>
  </scstep>
  <scstep>
   <time name="dav">    0.05    0.05</time>
   <time name="total">    0.35    0.36</time>
   <energy>
    <i name="e_fr_energy">    -14.76576244 </i>
    <i name="e_wo_entrp">    -14.76576244 </i>
    <i name="e_0_energy">    -14.76576244 </i>
   </energy>
  </scstep>
  <scstep>
   <time name="dav">    0.05    0.05</time>
   <time name="total">    0.30    0.32</time>
   <energy>
    <i name="alphaZ">      2.02295162 </i>
    <i name="ewald">    -24.54303854 </i>
    <i name="hartreedc">   -462.24003318 </i>
    <i name="XCdc">     40.62423063 </i>
    <i name="pawpsdc">    944.51518922 </i>
    <i name="pawaedc">   -946.90605451 </i>
    <i name="eentropy">      0.00000000 </i>
    <i name="bandstr">   -147.31032099 </i>
    <i name="atom">    579.07123046 </i>
    <i name="e_fr_energy">    -14.76584529 </i>
    <i name="e_wo_entrp">    -14.76584529 </i>
    <i name="e_0_energy">    -14.76584529 </i>
   </energy>
  </scstep>
  <structure>
   <crystal>
    <varray name="basis" >
     <v>       6.00000000       0.00000000       0.00000000 </v>
     <v>       0.00000000       6.00000000       0.00000000 </v>
     <v>       0.00000000       0.00000000       6.00000000 </v>
    </varray>
    <i name="volume">    216.00000000 </i>
    <varray name="rec_basis" >
     <v>       0.16666667       0.00000000       0.00000000 </v>
     <v>       0.00000000       0.16666667       0.00000000 </v>
     <v>       0.00000000       0.00000000       0.16666667 </v>
    </varray>
   </crystal>
   <varray name="positions" >
    <v>       0.00000000       0.00000000       0.00000000 </v>
    <v>       0.18333333       0.01666667       0.01666667 </v>
   </varray>
  </structure>
  <varray name="forces" >
   <v>      -4.43048304      -0.39031035      -0.39031035 </v>
   <v>       4.43048304       0.39031035       0.39031035 </v>
  </varray>
  <varray name="stress" >
   <v>      15.57773177       3.21802757       3.21802757 </v>
   <v>       3.21802756     -17.61231635       0.35819281 </v>
   <v>       3.21802756       0.35819281     -17.61231635 </v>
  </varray>
  <energy>
   <i name="e_fr_energy">    -14.76584529 </i>
   <i name="e_wo_entrp">    -14.76584529 </i>
   <i name="e_0_energy">      0.00000000 </i>
  </energy>
  <time name="totalsc">    5.56    5.78</time>
  <eigenvalues>
   <array>
    <dimension dim="1">band</dimension>
    <dimension dim="2">kpoint</dimension>
    <dimension dim="3">spin</dimension>
    <field>eigene</field>
    <field>occ</field>
    <set>
     <set comment="spin 1">
      <set comment="kpoint 1">
       <r>  -29.1553    1.0000 </r>
       <r>  -13.3695    1.0000 </r>
       <r>  -11.3928    1.0000 </r>
       <r>  -11.3923    1.0000 </r>
       <r>   -8.3452    1.0000 </r>
       <r>   -1.0540    0.0000 </r>
      </set>
     </set>
    </set>
   </array>
  </eigenvalues>
  <separator name="orbital magnetization" >
   <v name="MAGDIPOLOUT">      0.00000000      0.00000000      0.00000000</v>
  </separator>
  <dos>
   <i name="efermi">     -8.27839333 </i>
   <total>
    <array>
     <dimension dim="1">gridpoints</dimension>
     <dimension dim="2">spin</dimension>
     <field>energy</field>
     <field>total</field>
     <field>integrated</field>
     <set>
      <set comment="spin 1">
       <r>   -30.5604     0.0000     0.0000 </r>
       <r>   -30.4574     0.0000     0.0000 </r>
       <r>   -30.3543     0.0000     0.0000 </r>
       <r>   -30.2513     0.0000     0.0000 </r>
       <r>   -30.1483     0.0000     0.0000 </r>
       <r>   -30.0452     0.0000     0.0000 </r>
       <r>   -29.9422     0.0000     0.0000 </r>
       <r>   -29.8391     0.0000     0.0000 </r>
       <r>   -29.7361     0.0000     0.0000 </r>
       <r>   -29.6331     0.0000     0.0000 </r>
       <r>   -29.5300     0.0000     0.0000 </r>
       <r>   -29.4270     0.0000     0.0000 </r>
       <r>   -29.3240     0.0000     0.0000 </r>
       <r>   -29.2209     0.0000     0.0000 </r>
       <r>   -29.1179    19.4103     2.0000 </r>
       <r>   -29.0148     0.0000     2.0000 </r>
       <r>   -28.9118     0.0000     2.0000 </r>
       <r>   -28.8088     0.0000     2.0000 </r>
       <r>   -28.7057     0.0000     2.0000 </r>
       <r>   -28.6027     0.0000     2.0000 </r>
       <r>   -28.4996     0.0000     2.0000 </r>
       <r>   -28.3966     0.0000     2.0000 </r>
       <r>   -28.2936     0.0000     2.0000 </r>
       <r>   -28.1905     0.0000     2.0000 </r>
       <r>   -28.0875     0.0000     2.0000 </r>
       <r>   -27.9845     0.0000     2.0000 </r>
       <r>   -27.8814     0.0000     2.0000 </r>
       <r>   -27.7784     0.0000     2.0000 </r>
       <r>   -27.6753     0.0000     2.0000 </r>
       <r>   -27.5723     0.0000     2.0000 </r>
       <r>   -27.4693     0.0000     2.0000 </r>
       <r>   -27.3662     0.0000     2.0000 </r>
       <r>   -27.2632     0.0000     2.0000 </r>
       <r>   -27.1602     0.0000     2.0000 </r>
       <r>   -27.0571     0.0000     2.0000 </r>
       <r>   -26.9541     0.0000     2.0000 </r>
       <r>   -26.8510     0.0000     2.0000 </r>
       <r>   -26.7480     0.0000     2.0000 </r>
       <r>   -26.6450     0.0000     2.0000 </r>
       <r>   -26.5419     0.0000     2.0000 </r>
       <r>   -26.4389     0.0000     2.0000 </r>
       <r>   -26.3358     0.0000     2.0000 </r>
       <r>   -26.2328     0.0000     2.0000 </r>
       <r>   -26.1298     0.0000     2.0000 </r>
       <r>   -26.0267     0.0000     2.0000 </r>
       <r>   -25.9237     0.0000     2.0000 </r>
       <r>   -25.8207     0.0000     2.0000 </r>
       <r>   -25.7176     0.0000     2.0000 </r>
       <r>   -25.6146     0.0000     2.0000 </r>
       <r>   -25.5115     0.0000     2.0000 </r>
       <r>   -25.4085     0.0000     2.0000 </r>
       <r>   -25.3055     0.0000     2.0000 </r>
       <r>   -25.2024     0.0000     2.0000 </r>
       <r>   -25.0994     0.0000     2.0000 </r>
       <r>   -24.9963     0.0000     2.0000 </r>
       <r>   -24.8933     0.0000     2.0000 </r>
       <r>   -24.7903     0.0000     2.0000 </r>
       <r>   -24.6872     0.0000     2.0000 </r>
       <r>   -24.5842     0.0000     2.0000 </r>
       <r>   -24.4812     0.0000     2.0000 </r>
       <r>   -24.3781     0.0000     2.0000 </r>
       <r>   -24.2751     0.0000     2.0000 </r>
       <r>   -24.1720     0.0000     2.0000 </r>
       <r>   -24.0690     0.0000     2.0000 </r>
       <r>   -23.9660     0.0000     2.0000 </r>
       <r>   -23.8629     0.0000     2.0000 </r>
       <r>   -23.7599     0.0000     2.0000 </r>
       <r>   -23.6569     0.0000     2.0000 </r>
       <r>   -23.5538     0.0000     2.0000 </r>
       <r>   -23.4508     0.0000     2.0000 </r>
       <r>   -23.3477     0.0000     2.0000 </r>
       <r>   -23.2447     0.0000     2.0000 </r>
       <r>   -23.1417     0.0000     2.0000 </r>
       <r>   -23.0386     0.0000     2.0000 </r>
       <r>   -22.9356     0.0000     2.0000 </r>
       <r>   -22.8325     0.0000     2.0000 </r>
       <r>   -22.7295     0.0000     2.0000 </r>
       <r>   -22.6265     0.0000     2.0000 </r>
       <r>   -22.5234     0.0000     2.0000 </r>
       <r>   -22.4204     0.0000     2.0000 </r>
       <r>   -22.3174     0.0000     2.0000 </r>
       <r>   -22.2143     0.0000     2.0000 </r>
       <r>   -22.1113     0.0000     2.0000 </r>
       <r>   -22.0082     0.0000     2.0000 </r>
       <r>   -21.9052     0.0000     2.0000 </r>
       <r>   -21.8022     0.0000     2.0000 </r>
       <r>   -21.6991     0.0000     2.0000 </r>
       <r>   -21.5961     0.0000     2.0000 </r>
       <r>   -21.4930     0.0000     2.0000 </r>
       <r>   -21.3900     0.0000     2.0000 </r>
       <r>   -21.2870     0.0000     2.0000 </r>
       <r>   -21.1839     0.0000     2.0000 </r>
       <r>   -21.0809     0.0000     2.0000 </r>
       <r>   -20.9779     0.0000     2.0000 </r>
       <r>   -20.8748     0.0000     2.0000 </r>
       <r>   -20.7718     0.0000     2.0000 </r>
       <r>   -20.6687     0.0000     2.0000 </r>
       <r>   -20.5657     0.0000     2.0000 </r>
       <r>   -20.4627     0.0000     2.0000 </r>
       <r>   -20.3596     0.0000     2.0000 </r>
       <r>   -20.2566     0.0000     2.0000 </r>
       <r>   -20.1535     0.0000     2.0000 </r>
       <r>   -20.0505     0.0000     2.0000 </r>
       <r>   -19.9475     0.0000     2.0000 </r>
       <r>   -19.8444     0.0000     2.0000 </r>
       <r>   -19.7414     0.0000     2.0000 </r>
       <r>   -19.6384     0.0000     2.0000 </r>
       <r>   -19.5353     0.0000     2.0000 </r>
       <r>   -19.4323     0.0000     2.0000 </r>
       <r>   -19.3292     0.0000     2.0000 </r>
       <r>   -19.2262     0.0000     2.0000 </r>
       <r>   -19.1232     0.0000     2.0000 </r>
       <r>   -19.0201     0.0000     2.0000 </r>
       <r>   -18.9171     0.0000     2.0000 </r>
       <r>   -18.8141     0.0000     2.0000 </r>
       <r>   -18.7110     0.0000     2.0000 </r>
       <r>   -18.6080     0.0000     2.0000 </r>
       <r>   -18.5049     0.0000     2.0000 </r>
       <r>   -18.4019     0.0000     2.0000 </r>
       <r>   -18.2989     0.0000     2.0000 </r>
       <r>   -18.1958     0.0000     2.0000 </r>
       <r>   -18.0928     0.0000     2.0000 </r>
       <r>   -17.9897     0.0000     2.0000 </r>
       <r>   -17.8867     0.0000     2.0000 </r>
       <r>   -17.7837     0.0000     2.0000 </r>
       <r>   -17.6806     0.0000     2.0000 </r>
       <r>   -17.5776     0.0000     2.0000 </r>
       <r>   -17.4746     0.0000     2.0000 </r>
       <r>   -17.3715     0.0000     2.0000 </r>
       <r>   -17.2685     0.0000     2.0000 </r>
       <r>   -17.1654     0.0000     2.0000 </r>
       <r>   -17.0624     0.0000     2.0000 </r>
       <r>   -16.9594     0.0000     2.0000 </r>
       <r>   -16.8563     0.0000     2.0000 </r>
       <r>   -16.7533     0.0000     2.0000 </r>
       <r>   -16.6502     0.0000     2.0000 </r>
       <r>   -16.5472     0.0000     2.0000 </r>
       <r>   -16.4442     0.0000     2.0000 </r>
       <r>   -16.3411     0.0000     2.0000 </r>
       <r>   -16.2381     0.0000     2.0000 </r>
       <r>   -16.1351     0.0000     2.0000 </r>
       <r>   -16.0320     0.0000     2.0000 </r>
       <r>   -15.9290     0.0000     2.0000 </r>
       <r>   -15.8259     0.0000     2.0000 </r>
       <r>   -15.7229     0.0000     2.0000 </r>
       <r>   -15.6199     0.0000     2.0000 </r>
       <r>   -15.5168     0.0000     2.0000 </r>
       <r>   -15.4138     0.0000     2.0000 </r>
       <r>   -15.3108     0.0000     2.0000 </r>
       <r>   -15.2077     0.0000     2.0000 </r>
       <r>   -15.1047     0.0000     2.0000 </r>
       <r>   -15.0016     0.0000     2.0000 </r>
       <r>   -14.8986     0.0000     2.0000 </r>
       <r>   -14.7956     0.0000     2.0000 </r>
       <r>   -14.6925     0.0000     2.0000 </r>
       <r>   -14.5895     0.0000     2.0000 </r>
       <r>   -14.4864     0.0000     2.0000 </r>
       <r>   -14.3834     0.0000     2.0000 </r>
       <r>   -14.2804     0.0000     2.0000 </r>
       <r>   -14.1773     0.0000     2.0000 </r>
       <r>   -14.0743     0.0000     2.0000 </r>
       <r>   -13.9713     0.0000     2.0000 </r>
       <r>   -13.8682     0.0000     2.0000 </r>
       <r>   -13.7652     0.0000     2.0000 </r>
       <r>   -13.6621     0.0000     2.0000 </r>
       <r>   -13.5591     0.0000     2.0000 </r>
       <r>   -13.4561     0.0000     2.0000 </r>
       <r>   -13.3530    19.8168     4.0419 </r>
       <r>   -13.2500     0.0000     4.0000 </r>
       <r>   -13.1469     0.0000     4.0000 </r>
       <r>   -13.0439     0.0000     4.0000 </r>
       <r>   -12.9409     0.0000     4.0000 </r>
       <r>   -12.8378     0.0000     4.0000 </r>
       <r>   -12.7348     0.0000     4.0000 </r>
       <r>   -12.6318     0.0000     4.0000 </r>
       <r>   -12.5287     0.0000     4.0000 </r>
       <r>   -12.4257     0.0000     4.0000 </r>
       <r>   -12.3226     0.0000     4.0000 </r>
       <r>   -12.2196     0.0000     4.0000 </r>
       <r>   -12.1166     0.0000     4.0000 </r>
       <r>   -12.0135     0.0000     4.0000 </r>
       <r>   -11.9105     0.0000     4.0000 </r>
       <r>   -11.8075     0.0000     4.0000 </r>
       <r>   -11.7044     0.0000     4.0000 </r>
       <r>   -11.6014     0.0000     4.0000 </r>
       <r>   -11.4983     0.0000     4.0000 </r>
       <r>   -11.3953    10.7932     5.1121 </r>
       <r>   -11.2923     0.0000     8.0000 </r>
       <r>   -11.1892     0.0000     8.0000 </r>
       <r>   -11.0862     0.0000     8.0000 </r>
       <r>   -10.9831     0.0000     8.0000 </r>
       <r>   -10.8801     0.0000     8.0000 </r>
       <r>   -10.7771     0.0000     8.0000 </r>
       <r>   -10.6740     0.0000     8.0000 </r>
       <r>   -10.5710     0.0000     8.0000 </r>
       <r>   -10.4680     0.0000     8.0000 </r>
       <r>   -10.3649     0.0000     8.0000 </r>
       <r>   -10.2619     0.0000     8.0000 </r>
       <r>   -10.1588     0.0000     8.0000 </r>
       <r>   -10.0558     0.0000     8.0000 </r>
       <r>    -9.9528     0.0000     8.0000 </r>
       <r>    -9.8497     0.0000     8.0000 </r>
       <r>    -9.7467     0.0000     8.0000 </r>
       <r>    -9.6436     0.0000     8.0000 </r>
       <r>    -9.5406     0.0000     8.0000 </r>
       <r>    -9.4376     0.0000     8.0000 </r>
       <r>    -9.3345     0.0000     8.0000 </r>
       <r>    -9.2315     0.0000     8.0000 </r>
       <r>    -9.1285     0.0000     8.0000 </r>
       <r>    -9.0254     0.0000     8.0000 </r>
       <r>    -8.9224     0.0000     8.0000 </r>
       <r>    -8.8193     0.0000     8.0000 </r>
       <r>    -8.7163     0.0000     8.0000 </r>
       <r>    -8.6133     0.0000     8.0000 </r>
       <r>    -8.5102     0.0000     8.0000 </r>
       <r>    -8.4072     0.0000     8.0000 </r>
       <r>    -8.3042    19.4103    10.0000 </r>
       <r>    -8.2011     0.0000    10.0000 </r>
       <r>    -8.0981     0.0000    10.0000 </r>
       <r>    -7.9950     0.0000    10.0000 </r>
       <r>    -7.8920     0.0000    10.0000 </r>
       <r>    -7.7890     0.0000    10.0000 </r>
       <r>    -7.6859     0.0000    10.0000 </r>
       <r>    -7.5829     0.0000    10.0000 </r>
       <r>    -7.4798     0.0000    10.0000 </r>
       <r>    -7.3768     0.0000    10.0000 </r>
       <r>    -7.2738     0.0000    10.0000 </r>
       <r>    -7.1707     0.0000    10.0000 </r>
       <r>    -7.0677     0.0000    10.0000 </r>
       <r>    -6.9647     0.0000    10.0000 </r>
       <r>    -6.8616     0.0000    10.0000 </r>
       <r>    -6.7586     0.0000    10.0000 </r>
       <r>    -6.6555     0.0000    10.0000 </r>
       <r>    -6.5525     0.0000    10.0000 </r>
       <r>    -6.4495     0.0000    10.0000 </r>
       <r>    -6.3464     0.0000    10.0000 </r>
       <r>    -6.2434     0.0000    10.0000 </r>
       <r>    -6.1403     0.0000    10.0000 </r>
       <r>    -6.0373     0.0000    10.0000 </r>
       <r>    -5.9343     0.0000    10.0000 </r>
       <r>    -5.8312     0.0000    10.0000 </r>
       <r>    -5.7282     0.0000    10.0000 </r>
       <r>    -5.6252     0.0000    10.0000 </r>
       <r>    -5.5221     0.0000    10.0000 </r>
       <r>    -5.4191     0.0000    10.0000 </r>
       <r>    -5.3160     0.0000    10.0000 </r>
       <r>    -5.2130     0.0000    10.0000 </r>
       <r>    -5.1100     0.0000    10.0000 </r>
       <r>    -5.0069     0.0000    10.0000 </r>
       <r>    -4.9039     0.0000    10.0000 </r>
       <r>    -4.8009     0.0000    10.0000 </r>
       <r>    -4.6978     0.0000    10.0000 </r>
       <r>    -4.5948     0.0000    10.0000 </r>
       <r>    -4.4917     0.0000    10.0000 </r>
       <r>    -4.3887     0.0000    10.0000 </r>
       <r>    -4.2857     0.0000    10.0000 </r>
       <r>    -4.1826     0.0000    10.0000 </r>
       <r>    -4.0796     0.0000    10.0000 </r>
       <r>    -3.9765     0.0000    10.0000 </r>
       <r>    -3.8735     0.0000    10.0000 </r>
       <r>    -3.7705     0.0000    10.0000 </r>
       <r>    -3.6674     0.0000    10.0000 </r>
       <r>    -3.5644     0.0000    10.0000 </r>
       <r>    -3.4614     0.0000    10.0000 </r>
       <r>    -3.3583     0.0000    10.0000 </r>
       <r>    -3.2553     0.0000    10.0000 </r>
       <r>    -3.1522     0.0000    10.0000 </r>
       <r>    -3.0492     0.0000    10.0000 </r>
       <r>    -2.9462     0.0000    10.0000 </r>
       <r>    -2.8431     0.0000    10.0000 </r>
       <r>    -2.7401     0.0000    10.0000 </r>
       <r>    -2.6370     0.0000    10.0000 </r>
       <r>    -2.5340     0.0000    10.0000 </r>
       <r>    -2.4310     0.0000    10.0000 </r>
       <r>    -2.3279     0.0000    10.0000 </r>
       <r>    -2.2249     0.0000    10.0000 </r>
       <r>    -2.1219     0.0000    10.0000 </r>
       <r>    -2.0188     0.0000    10.0000 </r>
       <r>    -1.9158     0.0000    10.0000 </r>
       <r>    -1.8127     0.0000    10.0000 </r>
       <r>    -1.7097     0.0000    10.0000 </r>
       <r>    -1.6067     0.0000    10.0000 </r>
       <r>    -1.5036     0.0000    10.0000 </r>
       <r>    -1.4006     0.0000    10.0000 </r>
       <r>    -1.2976     0.0000    10.0000 </r>
       <r>    -1.1945     0.0000    10.0000 </r>
       <r>    -1.0915     0.0000    10.0000 </r>
       <r>    -0.9884    19.4103    12.0000 </r>
       <r>    -0.8854     0.0000    12.0000 </r>
       <r>    -0.7824     0.0000    12.0000 </r>
       <r>    -0.6793     0.0000    12.0000 </r>
       <r>    -0.5763     0.0000    12.0000 </r>
       <r>    -0.4732     0.0000    12.0000 </r>
       <r>    -0.3702     0.0000    12.0000 </r>
       <r>    -0.2672     0.0000    12.0000 </r>
       <r>    -0.1641     0.0000    12.0000 </r>
       <r>    -0.0611     0.0000    12.0000 </r>
       <r>     0.0419     0.0000    12.0000 </r>
       <r>     0.1450     0.0000    12.0000 </r>
       <r>     0.2480     0.0000    12.0000 </r>
       <r>     0.3511     0.0000    12.0000 </r>
      </set>
     </set>
    </array>
   </total>
  </dos>
 </calculation>
 <structure name="finalpos" >
  <crystal>
   <varray name="basis" >
    <v>       6.00000000       0.00000000       0.00000000 </v>
    <v>       0.00000000       6.00000000       0.00000000 </v>
    <v>       0.00000000       0.00000000       6.00000000 </v>
   </varray>
   <i name="volume">    216.00000000 </i>
   <varray name="rec_basis" >
    <v>       0.16666667       0.00000000       0.00000000 </v>
    <v>       0.00000000       0.16666667       0.00000000 </v>
    <v>       0.00000000       0.00000000       0.16666667 </v>
   </varray>
  </crystal>
  <varray name="positions" >
   <v>       0.00000000       0.00000000       0.00000000 </v>
   <v>       0.18333333       0.01666667       0.01666667 </v>
  </varray>
 </structure>
</modeling>
