<?xml version="1.0" encoding="ISO-8859-1"?>
<modeling>
 <generator>
  <i name="program" type="string">vasp </i>
  <i name="version" type="string">5.3.5  </i>
  <i name="subversion" type="string">31Mar14 (build Jan 09 2015 16:57:47) complex                          serial </i>
  <i name="platform" type="string">LinuxIFC </i>
  <i name="date" type="string">2016 01 17 </i>
  <i name="time" type="string">18:15:52 </i>
 </generator>
 <incar>
  <i type="string" name="PREC">normal</i>
  <i name="ENCUT">    350.00000000</i>
  <i type="int" name="NBANDS">     6</i>
  <i type="int" name="ISMEAR">     1</i>
  <i name="SIGMA">      0.01000000</i>
 </incar>
 <kpoints>
  <generation param="Monkhorst-Pack">
   <v type="int" name="divisions">       1        1        1 </v>
   <v name="usershift">      0.00000000       0.00000000       0.00000000 </v>
   <v name="genvec1">      1.00000000       0.00000000       0.00000000 </v>
   <v name="genvec2">      0.00000000       1.00000000       0.00000000 </v>
   <v name="genvec3">      0.00000000       0.00000000       1.00000000 </v>
   <v name="shift">      0.00000000       0.00000000       0.00000000 </v>
  </generation>
  <varray name="kpointlist" >
   <v>       0.00000000       0.00000000       0.00000000 </v>
  </varray>
  <varray name="weights" >
   <v>       1.00000000 </v>
  </varray>
 </kpoints>
 <parameters>
  <separator name="general" >
   <i type="string" name="SYSTEM">unknown system</i>
   <i type="logical" name="LCOMPAT"> F  </i>
  </separator>
  <separator name="electronic" >
   <i type="string" name="PREC">normal</i>
   <i name="ENMAX">    350.00000000</i>
   <i name="ENAUG">    644.87300000</i>
   <i name="EDIFF">      0.00010000</i>
   <i type="int" name="IALGO">    38</i>
   <i type="int" name="IWAVPR">     0</i>
   <i type="int" name="NBANDS">     6</i>
   <i name="NELECT">     10.00000000</i>
   <i type="int" name="TURBO">     0</i>
   <i type="int" name="IRESTART">     0</i>
   <i type="int" name="NREBOOT">     0</i>
   <i type="int" name="NMIN">     0</i>
   <i name="EREF">      0.00000000</i>
   <separator name="electronic smearing" >
    <i type="int" name="ISMEAR">     1</i>
    <i name="SIGMA">      0.01000000</i>
    <i name="KSPACING">      0.50000000</i>
    <i type="logical" name="KGAMMA"> T  </i>
   </separator>
   <separator name="electronic projectors" >
    <i type="logical" name="LREAL"> F  </i>
    <v name="ROPT">      0.00000000      0.00000000</v>
    <i type="int" name="LMAXPAW">  -100</i>
    <i type="int" name="LMAXMIX">     2</i>
    <i type="logical" name="NLSPLINE"> F  </i>
   </separator>
   <separator name="electronic startup" >
    <i type="int" name="ISTART">     0</i>
    <i type="int" name="ICHARG">     2</i>
    <i type="int" name="INIWAV">     1</i>
   </separator>
   <separator name="electronic spin" >
    <i type="int" name="ISPIN">     1</i>
    <i type="logical" name="LNONCOLLINEAR"> F  </i>
    <v name="MAGMOM">      1.00000000      1.00000000</v>
    <i name="NUPDOWN">     -1.00000000</i>
    <i type="logical" name="LSORBIT"> F  </i>
    <v name="SAXIS">      0.00000000      0.00000000      1.00000000</v>
    <i type="logical" name="LSPIRAL"> F  </i>
    <v name="QSPIRAL">      0.00000000      0.00000000      0.00000000</v>
    <i type="logical" name="LZEROZ"> F  </i>
   </separator>
   <separator name="electronic exchange-correlation" >
    <i type="logical" name="LASPH"> F  </i>
    <i type="logical" name="LMETAGGA"> F  </i>
   </separator>
   <separator name="electronic convergence" >
    <i type="int" name="NELM">    60</i>
    <i type="int" name="NELMDL">    -5</i>
    <i type="int" name="NELMIN">     2</i>
    <i name="ENINI">    350.00000000</i>
    <separator name="electronic convergence detail" >
     <i type="logical" name="LDIAG"> T  </i>
     <i type="logical" name="LSUBROT"> F  </i>
     <i name="WEIMIN">      0.00000000</i>
     <i name="EBREAK">      0.00000417</i>
     <i name="DEPER">      0.30000000</i>
     <i type="int" name="NRMM">     4</i>
     <i name="TIME">      0.40000000</i>
    </separator>
   </separator>
   <separator name="electronic mixer" >
    <i name="AMIX">      0.40000000</i>
    <i name="BMIX">      1.00000000</i>
    <i name="AMIN">      0.10000000</i>
    <i name="AMIX_MAG">      1.60000000</i>
    <i name="BMIX_MAG">      1.00000000</i>
    <separator name="electronic mixer details" >
     <i type="int" name="IMIX">     4</i>
     <i type="int" name="MAXMIX">   -45</i>
     <i name="WC">    100.00000000</i>
     <i type="int" name="INIMIX">     1</i>
     <i type="int" name="MIXPRE">     1</i>
     <i type="int" name="MREMOVE">     5</i>
    </separator>
   </separator>
   <separator name="electronic dipolcorrection" >
    <i type="logical" name="LDIPOL"> F  </i>
    <i type="logical" name="LMONO"> F  </i>
    <i type="int" name="IDIPOL">     0</i>
    <i name="EPSILON">      1.00000000</i>
    <v name="DIPOL">   -100.00000000   -100.00000000   -100.00000000</v>
    <i name="EFIELD">      0.00000000</i>
   </separator>
  </separator>
  <separator name="grids" >
   <i type="int" name="NGX">    28</i>
   <i type="int" name="NGY">    28</i>
   <i type="int" name="NGZ">    28</i>
   <i type="int" name="NGXF">    56</i>
   <i type="int" name="NGYF">    56</i>
   <i type="int" name="NGZF">    56</i>
   <i type="logical" name="ADDGRID"> F  </i>
  </separator>
  <separator name="ionic" >
   <i type="int" name="NSW">     0</i>
   <i type="int" name="IBRION">    -1</i>
   <i type="int" name="ISIF">     2</i>
   <i name="PSTRESS">      0.00000000</i>
   <i name="EDIFFG">      0.00100000</i>
   <i type="int" name="NFREE">     0</i>
   <i name="POTIM">      0.50000000</i>
   <i name="SMASS">     -3.00000000</i>
   <i name="SCALEE">      1.00000000</i>
  </separator>
  <separator name="ionic md" >
   <i name="TEBEG">      0.00010000</i>
   <i name="TEEND">      0.00010000</i>
   <i type="int" name="NBLOCK">     1</i>
   <i type="int" name="KBLOCK">     1</i>
   <i type="int" name="NPACO">   256</i>
   <i name="APACO">     16.00000000</i>
  </separator>
  <separator name="symmetry" >
   <i type="int" name="ISYM">     2</i>
   <i name="SYMPREC">      0.00001000</i>
  </separator>
  <separator name="dos" >
   <i type="logical" name="LORBIT"> F  </i>
   <v name="RWIGS">     -1.00000000     -1.00000000</v>
   <i type="int" name="NEDOS">   301</i>
   <i name="EMIN">     10.00000000</i>
   <i name="EMAX">    -10.00000000</i>
   <i name="EFERMI">      0.00000000</i>
  </separator>
  <separator name="writing" >
   <i type="int" name="NWRITE">     2</i>
   <i type="logical" name="LWAVE"> T  </i>
   <i type="logical" name="LCHARG"> T  </i>
   <i type="logical" name="LPARD"> F  </i>
   <i type="logical" name="LVTOT"> F  </i>
   <i type="logical" name="LVHAR"> F  </i>
   <i type="logical" name="LELF"> F  </i>
   <i type="logical" name="LOPTICS"> F  </i>
   <v name="STM">      0.00000000      0.00000000      0.00000000      0.00000000      0.00000000      0.00000000      0.00000000</v>
  </separator>
  <separator name="performance" >
   <i type="int" name="NPAR">     1</i>
   <i type="int" name="NSIM">     4</i>
   <i type="int" name="NBLK">    -1</i>
   <i type="logical" name="LPLANE"> T  </i>
   <i type="logical" name="LSCALAPACK"> F  </i>
   <i type="logical" name="LSCAAWARE"> F  </i>
   <i type="logical" name="LSCALU"> F  </i>
   <i type="logical" name="LASYNC"> F  </i>
   <i type="logical" name="LORBITALREAL"> F  </i>
  </separator>
  <separator name="miscellaneous" >
   <i type="int" name="IDIOT">     3</i>
   <i type="logical" name="LMUSIC"> F  </i>
   <v name="POMASS">     12.01100000     16.00000000</v>
   <v name="DARWINR">      0.00000000      0.00000000</v>
   <v name="DARWINV">      1.00000000      1.00000000</v>
   <i type="logical" name="LCORR"> T  </i>
  </separator>
  <i type="logical" name="GGA_COMPAT"> T  </i>
  <i type="logical" name="LBERRY"> F  </i>
  <i type="int" name="ICORELEVEL">     0</i>
  <i type="logical" name="LDAU"> F  </i>
  <i type="int" name="I_CONSTRAINED_M">     0</i>
  <separator name="electronic exchange-correlation" >
   <i type="string" name="GGA">--</i>
   <i type="int" name="VOSKOWN">     0</i>
   <i type="logical" name="LHFCALC"> F  </i>
   <i type="string" name="PRECFOCK"></i>
   <i type="logical" name="LSYMGRAD"> F  </i>
   <i type="logical" name="LHFONE"> F  </i>
   <i type="logical" name="LRHFCALC"> F  </i>
   <i type="logical" name="LTHOMAS"> F  </i>
   <i type="logical" name="LMODELHF"> F  </i>
   <i name="ENCUT4O">     -1.00000000</i>
   <i type="int" name="EXXOEP">     0</i>
   <i type="int" name="FOURORBIT">     0</i>
   <i name="AEXX">      0.00000000</i>
   <i name="HFALPHA">      0.00000000</i>
   <i name="MCALPHA">      0.00000000</i>
   <i name="ALDAX">      1.00000000</i>
   <i name="AGGAX">      1.00000000</i>
   <i name="ALDAC">      1.00000000</i>
   <i name="AGGAC">      1.00000000</i>
   <i type="int" name="NKREDX">     1</i>
   <i type="int" name="NKREDY">     1</i>
   <i type="int" name="NKREDZ">     1</i>
   <i type="logical" name="SHIFTRED"> F  </i>
   <i type="logical" name="ODDONLY"> F  </i>
   <i type="logical" name="EVENONLY"> F  </i>
   <i type="int" name="LMAXFOCK">     0</i>
   <i type="int" name="NMAXFOCKAE">     0</i>
   <i type="logical" name="LFOCKAEDFT"> F  </i>
   <i name="HFSCREEN">      0.00000000</i>
   <i name="HFSCREENC">      0.00000000</i>
   <i type="int" name="NBANDSGWLOW">     0</i>
  </separator>
  <separator name="vdW DFT" >
   <i type="logical" name="LUSE_VDW"> F  </i>
   <i name="Zab_VDW">     -0.84910000</i>
   <i name="PARAM1">      0.12340000</i>
   <i name="PARAM2">      1.00000000</i>
   <i name="PARAM3">      0.00000000</i>
  </separator>
  <separator name="model GW" >
   <i type="int" name="MODEL_GW">     0</i>
   <i name="MODEL_EPS0">     64.80000000</i>
   <i name="MODEL_ALPHA">      1.00000000</i>
  </separator>
  <separator name="linear response parameters" >
   <i type="logical" name="LEPSILON"> F  </i>
   <i type="logical" name="LRPA"> F  </i>
   <i type="logical" name="LNABLA"> F  </i>
   <i type="logical" name="LVEL"> F  </i>
   <i type="int" name="KINTER">     0</i>
   <i name="CSHIFT">      0.10000000</i>
   <i name="OMEGAMAX">     -1.00000000</i>
   <i name="DEG_THRESHOLD">      0.00200000</i>
  </separator>
  <separator name="orbital magnetization" >
   <i type="logical" name="NUCIND"> F  </i>
   <v name="MAGPOS">      0.00000000      0.00000000      0.00000000</v>
   <i type="logical" name="LNICSALL"> T  </i>
   <i type="logical" name="ORBITALMAG"> F  </i>
   <i type="logical" name="LMAGBLOCH"> F  </i>
   <i type="logical" name="LCHIMAG"> F  </i>
   <i type="logical" name="LGAUGE"> T  </i>
   <i type="int" name="MAGATOM">     0</i>
   <v name="MAGDIPOL">      0.00000000      0.00000000      0.00000000</v>
   <v name="AVECCONST">      0.00000000      0.00000000      0.00000000</v>
  </separator>
  <separator name="response functions" >
   <i type="logical" name="LADDER"> F  </i>
   <i type="logical" name="LFXC"> F  </i>
   <i type="logical" name="LHARTREE"> T  </i>
   <i type="int" name="IBSE">     0</i>
   <i type="logical" name="LTCTE"> F  </i>
   <i type="logical" name="LTETE"> F  </i>
   <i type="logical" name="LTRIPLET"> F  </i>
   <i type="logical" name="LFXCEPS"> F  </i>
   <i type="logical" name="LFXHEG"> F  </i>
   <i type="logical" name="L2ORDER"> F  </i>
   <i type="logical" name="LUSEW"> F  </i>
   <i name="ENCUTGW">     -2.00000000</i>
   <i name="ENCUTGWSOFT">     -2.00000000</i>
   <i name="ENCUTLF">     -1.00000000</i>
   <i type="int" name="LMAXMP2">    -1</i>
   <i name="SCISSOR">      0.00000000</i>
   <i type="int" name="NOMEGA">     0</i>
   <i type="int" name="NOMEGAR">     0</i>
   <i type="int" name="NBANDSGW">    -1</i>
   <i type="int" name="NBANDSO">    -1</i>
   <i type="int" name="NBANDSV">    -1</i>
   <i type="int" name="NELM">     1</i>
   <i type="int" name="DIM">     3</i>
   <i type="int" name="ANTIRES">     0</i>
   <i name="OMEGAMAX">    -30.00000000</i>
   <i name="OMEGAMIN">    -30.00000000</i>
   <i name="OMEGATL">   -200.00000000</i>
   <i type="int" name="OMEGAGRID">     0</i>
   <i name="CSHIFT">     -0.10000000</i>
   <i type="logical" name="SELFENERGY"> F  </i>
   <i type="logical" name="LSPECTRAL"> F  </i>
   <i type="logical" name="ODDONLYGW"> F  </i>
   <i type="logical" name="EVENONLYGW"> F  </i>
   <i type="int" name="NKREDLFX">     1</i>
   <i type="int" name="NKREDLFY">     1</i>
   <i type="int" name="NKREDLFZ">     1</i>
   <i type="int" name="MAXMEM">  1800</i>
   <i type="int" name="TELESCOPE">     0</i>
   <i type="int" name="TAUPAR">     1</i>
  </separator>
  <separator name="External order field" >
   <i name="OFIELD_KAPPA">      0.00000000</i>
   <v name="OFIELD_K">      0.00000000      0.00000000      0.00000000</v>
   <i name="OFIELD_Q6_NEAR">      0.00000000</i>
   <i name="OFIELD_Q6_FAR">      0.00000000</i>
   <i name="OFIELD_A">      0.00000000</i>
  </separator>
 </parameters>
 <atominfo>
  <atoms>       2 </atoms>
  <types>       2 </types>
  <array name="atoms" >
   <dimension dim="1">ion</dimension>
   <field type="string">element</field>
   <field type="int">atomtype</field>
   <set>
    <rc><c>C </c><c>   1</c></rc>
    <rc><c>O </c><c>   2</c></rc>
   </set>
  </array>
  <array name="atomtypes" >
   <dimension dim="1">type</dimension>
   <field type="int">atomspertype</field>
   <field type="string">element</field>
   <field>mass</field>
   <field>valence</field>
   <field type="string">pseudopotential</field>
   <set>
    <rc><c>   1</c><c>C </c><c>     12.01100000</c><c>      4.00000000</c><c>  PAW_PBE C 08Apr2002                   </c></rc>
    <rc><c>   1</c><c>O </c><c>     16.00000000</c><c>      6.00000000</c><c>  PAW_PBE O 08Apr2002                   </c></rc>
   </set>
  </array>
 </atominfo>
 <structure name="initialpos" >
  <crystal>
   <varray name="basis" >
    <v>       6.00000000       0.00000000       0.00000000 </v>
    <v>       0.00000000       6.00000000       0.00000000 </v>
    <v>       0.00000000       0.00000000       6.00000000 </v>
   </varray>
   <i name="volume">    216.00000000 </i>
   <varray name="rec_basis" >
    <v>       0.16666667       0.00000000       0.00000000 </v>
    <v>       0.00000000       0.16666667       0.00000000 </v>
    <v>       0.00000000       0.00000000       0.16666667 </v>
   </varray>
  </crystal>
  <varray name="positions" >
   <v>       0.00000000       0.00000000       0.00000000 </v>
   <v>       0.20000000       0.00000000       0.00000000 </v>
  </varray>
 </structure>
 <calculation>
  <scstep>
   <time name="dav">    0.08    0.08</time>
   <time name="total">    0.35    0.35</time>
   <energy>
    <i name="alphaZ">      2.02295162 </i>
    <i name="ewald">    -47.36045935 </i>
    <i name="hartreedc">   -427.92920201 </i>
    <i name="XCdc">     38.95318100 </i>
    <i name="pawpsdc">    455.07152327 </i>
    <i name="pawaedc">   -457.43959975 </i>
    <i name="eentropy">      0.00000000 </i>
    <i name="bandstr">    -79.18192165 </i>
    <i name="atom">    579.07123046 </i>
    <i name="e_fr_energy">     63.20770360 </i>
    <i name="e_wo_entrp">     63.20770360 </i>
    <i name="e_0_energy">     63.20770360 </i>
   </energy>
  </scstep>
  <scstep>
   <time name="dav">    0.10    0.12</time>
   <time name="total">    0.11    0.14</time>
   <energy>
    <i name="e_fr_energy">     -5.19599845 </i>
    <i name="e_wo_entrp">     -5.19599845 </i>
    <i name="e_0_energy">     -5.19599845 </i>
   </energy>
  </scstep>
  <scstep>
   <time name="dav">    0.08    0.08</time>
   <time name="total">    0.08    0.10</time>
   <energy>
    <i name="e_fr_energy">    -14.85568640 </i>
    <i name="e_wo_entrp">    -14.85568640 </i>
    <i name="e_0_energy">    -14.85568640 </i>
   </energy>
  </scstep>
  <scstep>
   <time name="dav">    0.14    0.14</time>
   <time name="total">    0.14    0.17</time>
   <energy>
    <i name="e_fr_energy">    -15.28873861 </i>
    <i name="e_wo_entrp">    -15.28931840 </i>
    <i name="e_0_energy">    -15.28893188 </i>
   </energy>
  </scstep>
  <scstep>
   <time name="dav">    0.07    0.08</time>
   <time name="total">    0.12    0.15</time>
   <energy>
    <i name="e_fr_energy">    -15.28991938 </i>
    <i name="e_wo_entrp">    -15.28991938 </i>
    <i name="e_0_energy">    -15.28991938 </i>
   </energy>
  </scstep>
  <scstep>
   <time name="dav">    0.08    0.08</time>
   <time name="total">    0.40    0.43</time>
   <energy>
    <i name="e_fr_energy">    -14.82369941 </i>
    <i name="e_wo_entrp">    -14.82427920 </i>
    <i name="e_0_energy">    -14.82389267 </i>
   </energy>
  </scstep>
  <scstep>
   <time name="dav">    0.11    0.12</time>
   <time name="total">    0.42    0.45</time>
   <energy>
    <i name="e_fr_energy">    -14.72298624 </i>
    <i name="e_wo_entrp">    -14.72298624 </i>
    <i name="e_0_energy">    -14.72298624 </i>
   </energy>
  </scstep>
  <scstep>
   <time name="dav">    0.07    0.08</time>
   <time name="total">    0.39    0.41</time>
   <energy>
    <i name="e_fr_energy">    -14.68886236 </i>
    <i name="e_wo_entrp">    -14.68944215 </i>
    <i name="e_0_energy">    -14.68905562 </i>
   </energy>
  </scstep>
  <scstep>
   <time name="dav">    0.13    0.13</time>
   <time name="total">    0.47    0.50</time>
   <energy>
    <i name="e_fr_energy">    -14.68944425 </i>
    <i name="e_wo_entrp">    -14.68944425 </i>
    <i name="e_0_energy">    -14.68944425 </i>
   </energy>
  </scstep>
  <scstep>
   <time name="dav">    0.09    0.09</time>
   <time name="total">    0.42    0.44</time>
   <energy>
    <i name="e_fr_energy">    -14.68983460 </i>
    <i name="e_wo_entrp">    -14.68983460 </i>
    <i name="e_0_energy">    -14.68983460 </i>
   </energy>
  </scstep>
  <scstep>
   <time name="dav">    0.06    0.06</time>
   <time name="total">    0.39    0.47</time>
   <energy>
    <i name="e_fr_energy">    -14.69078693 </i>
    <i name="e_wo_entrp">    -14.69078693 </i>
    <i name="e_0_energy">    -14.69078693 </i>
   </energy>
  </scstep>
  <scstep>
   <time name="dav">    0.05    0.05</time>
   <time name="total">    0.39    0.44</time>
   <energy>
    <i name="e_fr_energy">    -14.69102957 </i>
    <i name="e_wo_entrp">    -14.69102957 </i>
    <i name="e_0_energy">    -14.69102957 </i>
   </energy>
  </scstep>
  <scstep>
   <time name="dav">    0.05    0.05</time>
   <time name="total">    0.34    0.40</time>
   <energy>
    <i name="alphaZ">      2.02295162 </i>
    <i name="ewald">    -47.36045935 </i>
    <i name="hartreedc">   -444.12843557 </i>
    <i name="XCdc">     39.93665401 </i>
    <i name="pawpsdc">    789.12345796 </i>
    <i name="pawaedc">   -791.39600788 </i>
    <i name="eentropy">      0.00000000 </i>
    <i name="bandstr">   -141.96050632 </i>
    <i name="atom">    579.07123046 </i>
    <i name="e_fr_energy">    -14.69111507 </i>
    <i name="e_wo_entrp">    -14.69111507 </i>
    <i name="e_0_energy">    -14.69111507 </i>
   </energy>
  </scstep>
  <structure>
   <crystal>
    <varray name="basis" >
     <v>       6.00000000       0.00000000       0.00000000 </v>
     <v>       0.00000000       6.00000000       0.00000000 </v>
     <v>       0.00000000       0.00000000       6.00000000 </v>
    </varray>
    <i name="volume">    216.00000000 </i>
    <varray name="rec_basis" >
     <v>       0.16666667       0.00000000       0.00000000 </v>
     <v>       0.00000000       0.16666667       0.00000000 </v>
     <v>       0.00000000       0.00000000       0.16666667 </v>
    </varray>
   </crystal>
   <varray name="positions" >
    <v>       0.00000000       0.00000000       0.00000000 </v>
    <v>       0.20000000       0.00000000       0.00000000 </v>
   </varray>
  </structure>
  <varray name="forces" >
   <v>       5.09138064       0.00000000       0.00000000 </v>
   <v>      -5.09138064       0.00000000       0.00000000 </v>
  </varray>
  <varray name="stress" >
   <v>     -66.41918778       0.00000000       0.00000000 </v>
   <v>       0.00000000     -17.54336357       0.00000000 </v>
   <v>       0.00000000       0.00000000     -17.54336357 </v>
  </varray>
  <energy>
   <i name="e_fr_energy">    -14.69111507 </i>
   <i name="e_wo_entrp">    -14.69111507 </i>
   <i name="e_0_energy">      0.00000000 </i>
  </energy>
  <time name="totalsc">    5.22    5.81</time>
  <eigenvalues>
   <array>
    <dimension dim="1">band</dimension>
    <dimension dim="2">kpoint</dimension>
    <dimension dim="3">spin</dimension>
    <field>eigene</field>
    <field>occ</field>
    <set>
     <set comment="spin 1">
      <set comment="kpoint 1">
       <r>  -27.8166    1.0000 </r>
       <r>  -13.4341    1.0000 </r>
       <r>  -10.6036    1.0000 </r>
       <r>  -10.6036    1.0000 </r>
       <r>   -8.5224    1.0000 </r>
       <r>   -1.9071    0.0000 </r>
      </set>
     </set>
    </set>
   </array>
  </eigenvalues>
  <separator name="orbital magnetization" >
   <v name="MAGDIPOLOUT">      0.00000000      0.00000000      0.00000000</v>
  </separator>
  <dos>
   <i name="efermi">     -8.47301758 </i>
   <total>
    <array>
     <dimension dim="1">gridpoints</dimension>
     <dimension dim="2">spin</dimension>
     <field>energy</field>
     <field>total</field>
     <field>integrated</field>
     <set>
      <set comment="spin 1">
       <r>   -29.1121     0.0000     0.0000 </r>
       <r>   -29.0171     0.0000     0.0000 </r>
       <r>   -28.9221     0.0000     0.0000 </r>
       <r>   -28.8271     0.0000     0.0000 </r>
       <r>   -28.7320     0.0000     0.0000 </r>
       <r>   -28.6370     0.0000     0.0000 </r>
       <r>   -28.5420     0.0000     0.0000 </r>
       <r>   -28.4470     0.0000     0.0000 </r>
       <r>   -28.3520     0.0000     0.0000 </r>
       <r>   -28.2570     0.0000     0.0000 </r>
       <r>   -28.1620     0.0000     0.0000 </r>
       <r>   -28.0670     0.0000     0.0000 </r>
       <r>   -27.9720     0.0000     0.0000 </r>
       <r>   -27.8770     0.0000     0.0000 </r>
       <r>   -27.7820    21.0525     2.0000 </r>
       <r>   -27.6870     0.0000     2.0000 </r>
       <r>   -27.5920     0.0000     2.0000 </r>
       <r>   -27.4970     0.0000     2.0000 </r>
       <r>   -27.4020     0.0000     2.0000 </r>
       <r>   -27.3070     0.0000     2.0000 </r>
       <r>   -27.2120     0.0000     2.0000 </r>
       <r>   -27.1170     0.0000     2.0000 </r>
       <r>   -27.0220     0.0000     2.0000 </r>
       <r>   -26.9270     0.0000     2.0000 </r>
       <r>   -26.8320     0.0000     2.0000 </r>
       <r>   -26.7370     0.0000     2.0000 </r>
       <r>   -26.6420     0.0000     2.0000 </r>
       <r>   -26.5470     0.0000     2.0000 </r>
       <r>   -26.4520     0.0000     2.0000 </r>
       <r>   -26.3570     0.0000     2.0000 </r>
       <r>   -26.2620     0.0000     2.0000 </r>
       <r>   -26.1670     0.0000     2.0000 </r>
       <r>   -26.0720     0.0000     2.0000 </r>
       <r>   -25.9770     0.0000     2.0000 </r>
       <r>   -25.8820     0.0000     2.0000 </r>
       <r>   -25.7870     0.0000     2.0000 </r>
       <r>   -25.6920     0.0000     2.0000 </r>
       <r>   -25.5970     0.0000     2.0000 </r>
       <r>   -25.5020     0.0000     2.0000 </r>
       <r>   -25.4070     0.0000     2.0000 </r>
       <r>   -25.3120     0.0000     2.0000 </r>
       <r>   -25.2170     0.0000     2.0000 </r>
       <r>   -25.1220     0.0000     2.0000 </r>
       <r>   -25.0270     0.0000     2.0000 </r>
       <r>   -24.9320     0.0000     2.0000 </r>
       <r>   -24.8370     0.0000     2.0000 </r>
       <r>   -24.7420     0.0000     2.0000 </r>
       <r>   -24.6470     0.0000     2.0000 </r>
       <r>   -24.5520     0.0000     2.0000 </r>
       <r>   -24.4570     0.0000     2.0000 </r>
       <r>   -24.3620     0.0000     2.0000 </r>
       <r>   -24.2670     0.0000     2.0000 </r>
       <r>   -24.1720     0.0000     2.0000 </r>
       <r>   -24.0770     0.0000     2.0000 </r>
       <r>   -23.9820     0.0000     2.0000 </r>
       <r>   -23.8870     0.0000     2.0000 </r>
       <r>   -23.7920     0.0000     2.0000 </r>
       <r>   -23.6970     0.0000     2.0000 </r>
       <r>   -23.6020     0.0000     2.0000 </r>
       <r>   -23.5070     0.0000     2.0000 </r>
       <r>   -23.4120     0.0000     2.0000 </r>
       <r>   -23.3170     0.0000     2.0000 </r>
       <r>   -23.2220     0.0000     2.0000 </r>
       <r>   -23.1270     0.0000     2.0000 </r>
       <r>   -23.0320     0.0000     2.0000 </r>
       <r>   -22.9370     0.0000     2.0000 </r>
       <r>   -22.8420     0.0000     2.0000 </r>
       <r>   -22.7470     0.0000     2.0000 </r>
       <r>   -22.6520     0.0000     2.0000 </r>
       <r>   -22.5570     0.0000     2.0000 </r>
       <r>   -22.4620     0.0000     2.0000 </r>
       <r>   -22.3670     0.0000     2.0000 </r>
       <r>   -22.2720     0.0000     2.0000 </r>
       <r>   -22.1770     0.0000     2.0000 </r>
       <r>   -22.0820     0.0000     2.0000 </r>
       <r>   -21.9870     0.0000     2.0000 </r>
       <r>   -21.8920     0.0000     2.0000 </r>
       <r>   -21.7970     0.0000     2.0000 </r>
       <r>   -21.7020     0.0000     2.0000 </r>
       <r>   -21.6069     0.0000     2.0000 </r>
       <r>   -21.5119     0.0000     2.0000 </r>
       <r>   -21.4169     0.0000     2.0000 </r>
       <r>   -21.3219     0.0000     2.0000 </r>
       <r>   -21.2269     0.0000     2.0000 </r>
       <r>   -21.1319     0.0000     2.0000 </r>
       <r>   -21.0369     0.0000     2.0000 </r>
       <r>   -20.9419     0.0000     2.0000 </r>
       <r>   -20.8469     0.0000     2.0000 </r>
       <r>   -20.7519     0.0000     2.0000 </r>
       <r>   -20.6569     0.0000     2.0000 </r>
       <r>   -20.5619     0.0000     2.0000 </r>
       <r>   -20.4669     0.0000     2.0000 </r>
       <r>   -20.3719     0.0000     2.0000 </r>
       <r>   -20.2769     0.0000     2.0000 </r>
       <r>   -20.1819     0.0000     2.0000 </r>
       <r>   -20.0869     0.0000     2.0000 </r>
       <r>   -19.9919     0.0000     2.0000 </r>
       <r>   -19.8969     0.0000     2.0000 </r>
       <r>   -19.8019     0.0000     2.0000 </r>
       <r>   -19.7069     0.0000     2.0000 </r>
       <r>   -19.6119     0.0000     2.0000 </r>
       <r>   -19.5169     0.0000     2.0000 </r>
       <r>   -19.4219     0.0000     2.0000 </r>
       <r>   -19.3269     0.0000     2.0000 </r>
       <r>   -19.2319     0.0000     2.0000 </r>
       <r>   -19.1369     0.0000     2.0000 </r>
       <r>   -19.0419     0.0000     2.0000 </r>
       <r>   -18.9469     0.0000     2.0000 </r>
       <r>   -18.8519     0.0000     2.0000 </r>
       <r>   -18.7569     0.0000     2.0000 </r>
       <r>   -18.6619     0.0000     2.0000 </r>
       <r>   -18.5669     0.0000     2.0000 </r>
       <r>   -18.4719     0.0000     2.0000 </r>
       <r>   -18.3769     0.0000     2.0000 </r>
       <r>   -18.2819     0.0000     2.0000 </r>
       <r>   -18.1869     0.0000     2.0000 </r>
       <r>   -18.0919     0.0000     2.0000 </r>
       <r>   -17.9969     0.0000     2.0000 </r>
       <r>   -17.9019     0.0000     2.0000 </r>
       <r>   -17.8069     0.0000     2.0000 </r>
       <r>   -17.7119     0.0000     2.0000 </r>
       <r>   -17.6169     0.0000     2.0000 </r>
       <r>   -17.5219     0.0000     2.0000 </r>
       <r>   -17.4269     0.0000     2.0000 </r>
       <r>   -17.3319     0.0000     2.0000 </r>
       <r>   -17.2369     0.0000     2.0000 </r>
       <r>   -17.1419     0.0000     2.0000 </r>
       <r>   -17.0469     0.0000     2.0000 </r>
       <r>   -16.9519     0.0000     2.0000 </r>
       <r>   -16.8569     0.0000     2.0000 </r>
       <r>   -16.7619     0.0000     2.0000 </r>
       <r>   -16.6669     0.0000     2.0000 </r>
       <r>   -16.5719     0.0000     2.0000 </r>
       <r>   -16.4769     0.0000     2.0000 </r>
       <r>   -16.3819     0.0000     2.0000 </r>
       <r>   -16.2869     0.0000     2.0000 </r>
       <r>   -16.1919     0.0000     2.0000 </r>
       <r>   -16.0969     0.0000     2.0000 </r>
       <r>   -16.0019     0.0000     2.0000 </r>
       <r>   -15.9069     0.0000     2.0000 </r>
       <r>   -15.8119     0.0000     2.0000 </r>
       <r>   -15.7169     0.0000     2.0000 </r>
       <r>   -15.6219     0.0000     2.0000 </r>
       <r>   -15.5269     0.0000     2.0000 </r>
       <r>   -15.4319     0.0000     2.0000 </r>
       <r>   -15.3369     0.0000     2.0000 </r>
       <r>   -15.2419     0.0000     2.0000 </r>
       <r>   -15.1469     0.0000     2.0000 </r>
       <r>   -15.0519     0.0000     2.0000 </r>
       <r>   -14.9569     0.0000     2.0000 </r>
       <r>   -14.8619     0.0000     2.0000 </r>
       <r>   -14.7669     0.0000     2.0000 </r>
       <r>   -14.6719     0.0000     2.0000 </r>
       <r>   -14.5769     0.0000     2.0000 </r>
       <r>   -14.4819     0.0000     2.0000 </r>
       <r>   -14.3868     0.0000     2.0000 </r>
       <r>   -14.2918     0.0000     2.0000 </r>
       <r>   -14.1968     0.0000     2.0000 </r>
       <r>   -14.1018     0.0000     2.0000 </r>
       <r>   -14.0068     0.0000     2.0000 </r>
       <r>   -13.9118     0.0000     2.0000 </r>
       <r>   -13.8168     0.0000     2.0000 </r>
       <r>   -13.7218     0.0000     2.0000 </r>
       <r>   -13.6268     0.0000     2.0000 </r>
       <r>   -13.5318     0.0000     2.0000 </r>
       <r>   -13.4368     5.9188     2.5623 </r>
       <r>   -13.3418     0.0000     4.0000 </r>
       <r>   -13.2468     0.0000     4.0000 </r>
       <r>   -13.1518     0.0000     4.0000 </r>
       <r>   -13.0568     0.0000     4.0000 </r>
       <r>   -12.9618     0.0000     4.0000 </r>
       <r>   -12.8668     0.0000     4.0000 </r>
       <r>   -12.7718     0.0000     4.0000 </r>
       <r>   -12.6768     0.0000     4.0000 </r>
       <r>   -12.5818     0.0000     4.0000 </r>
       <r>   -12.4868     0.0000     4.0000 </r>
       <r>   -12.3918     0.0000     4.0000 </r>
       <r>   -12.2968     0.0000     4.0000 </r>
       <r>   -12.2018     0.0000     4.0000 </r>
       <r>   -12.1068     0.0000     4.0000 </r>
       <r>   -12.0118     0.0000     4.0000 </r>
       <r>   -11.9168     0.0000     4.0000 </r>
       <r>   -11.8218     0.0000     4.0000 </r>
       <r>   -11.7268     0.0000     4.0000 </r>
       <r>   -11.6318     0.0000     4.0000 </r>
       <r>   -11.5368     0.0000     4.0000 </r>
       <r>   -11.4418     0.0000     4.0000 </r>
       <r>   -11.3468     0.0000     4.0000 </r>
       <r>   -11.2518     0.0000     4.0000 </r>
       <r>   -11.1568     0.0000     4.0000 </r>
       <r>   -11.0618     0.0000     4.0000 </r>
       <r>   -10.9668     0.0000     4.0000 </r>
       <r>   -10.8718     0.0000     4.0000 </r>
       <r>   -10.7768     0.0000     4.0000 </r>
       <r>   -10.6818     0.0000     4.0000 </r>
       <r>   -10.5868    42.9295     8.0784 </r>
       <r>   -10.4918     0.0000     8.0000 </r>
       <r>   -10.3968     0.0000     8.0000 </r>
       <r>   -10.3018     0.0000     8.0000 </r>
       <r>   -10.2068     0.0000     8.0000 </r>
       <r>   -10.1118     0.0000     8.0000 </r>
       <r>   -10.0168     0.0000     8.0000 </r>
       <r>    -9.9218     0.0000     8.0000 </r>
       <r>    -9.8268     0.0000     8.0000 </r>
       <r>    -9.7318     0.0000     8.0000 </r>
       <r>    -9.6368     0.0000     8.0000 </r>
       <r>    -9.5418     0.0000     8.0000 </r>
       <r>    -9.4468     0.0000     8.0000 </r>
       <r>    -9.3518     0.0000     8.0000 </r>
       <r>    -9.2568     0.0000     8.0000 </r>
       <r>    -9.1618     0.0000     8.0000 </r>
       <r>    -9.0668     0.0000     8.0000 </r>
       <r>    -8.9718     0.0000     8.0000 </r>
       <r>    -8.8768     0.0000     8.0000 </r>
       <r>    -8.7818     0.0000     8.0000 </r>
       <r>    -8.6868     0.0000     8.0000 </r>
       <r>    -8.5918     0.0000     8.0000 </r>
       <r>    -8.4968    21.0706    10.0017 </r>
       <r>    -8.4018     0.0000    10.0000 </r>
       <r>    -8.3068     0.0000    10.0000 </r>
       <r>    -8.2118     0.0000    10.0000 </r>
       <r>    -8.1168     0.0000    10.0000 </r>
       <r>    -8.0218     0.0000    10.0000 </r>
       <r>    -7.9268     0.0000    10.0000 </r>
       <r>    -7.8318     0.0000    10.0000 </r>
       <r>    -7.7368     0.0000    10.0000 </r>
       <r>    -7.6418     0.0000    10.0000 </r>
       <r>    -7.5468     0.0000    10.0000 </r>
       <r>    -7.4518     0.0000    10.0000 </r>
       <r>    -7.3568     0.0000    10.0000 </r>
       <r>    -7.2618     0.0000    10.0000 </r>
       <r>    -7.1667     0.0000    10.0000 </r>
       <r>    -7.0717     0.0000    10.0000 </r>
       <r>    -6.9767     0.0000    10.0000 </r>
       <r>    -6.8817     0.0000    10.0000 </r>
       <r>    -6.7867     0.0000    10.0000 </r>
       <r>    -6.6917     0.0000    10.0000 </r>
       <r>    -6.5967     0.0000    10.0000 </r>
       <r>    -6.5017     0.0000    10.0000 </r>
       <r>    -6.4067     0.0000    10.0000 </r>
       <r>    -6.3117     0.0000    10.0000 </r>
       <r>    -6.2167     0.0000    10.0000 </r>
       <r>    -6.1217     0.0000    10.0000 </r>
       <r>    -6.0267     0.0000    10.0000 </r>
       <r>    -5.9317     0.0000    10.0000 </r>
       <r>    -5.8367     0.0000    10.0000 </r>
       <r>    -5.7417     0.0000    10.0000 </r>
       <r>    -5.6467     0.0000    10.0000 </r>
       <r>    -5.5517     0.0000    10.0000 </r>
       <r>    -5.4567     0.0000    10.0000 </r>
       <r>    -5.3617     0.0000    10.0000 </r>
       <r>    -5.2667     0.0000    10.0000 </r>
       <r>    -5.1717     0.0000    10.0000 </r>
       <r>    -5.0767     0.0000    10.0000 </r>
       <r>    -4.9817     0.0000    10.0000 </r>
       <r>    -4.8867     0.0000    10.0000 </r>
       <r>    -4.7917     0.0000    10.0000 </r>
       <r>    -4.6967     0.0000    10.0000 </r>
       <r>    -4.6017     0.0000    10.0000 </r>
       <r>    -4.5067     0.0000    10.0000 </r>
       <r>    -4.4117     0.0000    10.0000 </r>
       <r>    -4.3167     0.0000    10.0000 </r>
       <r>    -4.2217     0.0000    10.0000 </r>
       <r>    -4.1267     0.0000    10.0000 </r>
       <r>    -4.0317     0.0000    10.0000 </r>
       <r>    -3.9367     0.0000    10.0000 </r>
       <r>    -3.8417     0.0000    10.0000 </r>
       <r>    -3.7467     0.0000    10.0000 </r>
       <r>    -3.6517     0.0000    10.0000 </r>
       <r>    -3.5567     0.0000    10.0000 </r>
       <r>    -3.4617     0.0000    10.0000 </r>
       <r>    -3.3667     0.0000    10.0000 </r>
       <r>    -3.2717     0.0000    10.0000 </r>
       <r>    -3.1767     0.0000    10.0000 </r>
       <r>    -3.0817     0.0000    10.0000 </r>
       <r>    -2.9867     0.0000    10.0000 </r>
       <r>    -2.8917     0.0000    10.0000 </r>
       <r>    -2.7967     0.0000    10.0000 </r>
       <r>    -2.7017     0.0000    10.0000 </r>
       <r>    -2.6067     0.0000    10.0000 </r>
       <r>    -2.5117     0.0000    10.0000 </r>
       <r>    -2.4167     0.0000    10.0000 </r>
       <r>    -2.3217     0.0000    10.0000 </r>
       <r>    -2.2267     0.0000    10.0000 </r>
       <r>    -2.1317     0.0000    10.0000 </r>
       <r>    -2.0367     0.0000    10.0000 </r>
       <r>    -1.9417    -0.0001    10.0000 </r>
       <r>    -1.8467    21.0525    12.0000 </r>
       <r>    -1.7517     0.0000    12.0000 </r>
       <r>    -1.6567     0.0000    12.0000 </r>
       <r>    -1.5617     0.0000    12.0000 </r>
       <r>    -1.4667     0.0000    12.0000 </r>
       <r>    -1.3717     0.0000    12.0000 </r>
       <r>    -1.2767     0.0000    12.0000 </r>
       <r>    -1.1817     0.0000    12.0000 </r>
       <r>    -1.0867     0.0000    12.0000 </r>
       <r>    -0.9917     0.0000    12.0000 </r>
       <r>    -0.8967     0.0000    12.0000 </r>
       <r>    -0.8017     0.0000    12.0000 </r>
       <r>    -0.7067     0.0000    12.0000 </r>
       <r>    -0.6117     0.0000    12.0000 </r>
      </set>
     </set>
    </array>
   </total>
  </dos>
 </calculation>
 <structure name="finalpos" >
  <crystal>
   <varray name="basis" >
    <v>       6.00000000       0.00000000       0.00000000 </v>
    <v>       0.00000000       6.00000000       0.00000000 </v>
    <v>       0.00000000       0.00000000       6.00000000 </v>
   </varray>
   <i name="volume">    216.00000000 </i>
   <varray name="rec_basis" >
    <v>       0.16666667       0.00000000       0.00000000 </v>
    <v>       0.00000000       0.16666667       0.00000000 </v>
    <v>       0.00000000       0.00000000       0.16666667 </v>
   </varray>
  </crystal>
  <varray name="positions" >
   <v>       0.00000000       0.00000000       0.00000000 </v>
   <v>       0.20000000       0.00000000       0.00000000 </v>
  </varray>
 </structure>
</modeling>
