unknown system                          
   1.00000000000000     
     2.805658    0.000000    0.000000
     1.402829    2.429771    0.000000
     1.402829    0.809924    2.290810
   Pd
     1
Direct
  0.000000  0.000000  0.000000
 
   28   28   28
  98.165      95.032      86.489      74.604      61.568      48.866      37.204      26.962      18.562      12.393    
  8.4739      6.2769      4.9848      4.2815      4.0633      4.2815      4.9848      6.2769      8.4739      12.393    
  18.562      26.962      37.204      48.866      61.568      74.604      86.489      95.032      95.031      89.202    
  79.049      66.732      54.067      42.088      31.290      22.081      14.908      10.010      7.1239      5.4961    
  4.5278      4.0866      4.0873      4.5285      5.4955      7.1232      10.011      14.909      22.080      31.289    
  42.088      54.068      66.732      79.048      89.203      95.032      86.488      79.048      68.585      56.918    
  45.332      34.533      25.000      17.217      11.564      8.0137      6.0127      4.8062      4.1535      3.9512    
  4.1535      4.8063      6.0127      8.0136      11.564      17.217      25.000      34.533      45.332      56.918    
  68.585      79.048      86.488      89.203      74.604      66.732      56.917      46.472      36.275      26.928    
  18.979      12.904      8.8557      6.4892      5.0832      4.2470      3.8700      3.8695      4.2465      5.0837    
  6.4897      8.8551      12.903      18.980      26.928      36.275      46.472      56.917      66.732      74.604    
  79.048      79.049      61.569      54.068      45.331      36.275      27.602      19.933      13.810      9.5181    
  6.8892      5.3270      4.3459      3.8274      3.6688      3.8275      4.3459      5.3270      6.8892      9.5181    
  13.810      19.933      27.602      36.275      45.331      54.068      61.569      66.732      68.584      66.732    
  48.866      42.088      34.534      26.928      19.933      14.132      9.8838      7.1592      5.5070      4.4321    
  3.8090      3.5331      3.5334      3.8094      4.4318      5.5066      7.1595      9.8841      14.131      19.933    
  26.928      34.534      42.088      48.866      54.068      56.917      56.917      54.067      37.203      31.290    
  25.000      18.979      13.811      9.8841      7.2554      5.6018      4.4893      3.8029      3.4476      3.3397    
  3.4476      3.8029      4.4893      5.6018      7.2554      9.8840      13.811      18.979      25.000      31.290    
  37.203      42.088      45.332      46.472      45.332      42.088      26.962      22.080      17.217      12.903    
  9.5180      7.1594      5.6020      4.5092      3.8010      3.4001      3.2241      3.2240      3.4000      3.8011    
  4.5094      5.6019      7.1593      9.5181      12.903      17.216      22.080      26.962      31.290      34.534    
  36.275      36.275      34.534      31.289      18.563      14.908      11.564      8.8554      6.8889      5.5068    
  4.4893      3.8011      3.3847      3.1701      3.1048      3.1701      3.3847      3.8010      4.4893      5.5068    
  6.8889      8.8554      11.564      14.908      18.563      22.080      25.000      26.928      27.602      26.928    
  25.000      22.080      12.393      10.011      8.0141      6.4894      5.3270      4.4320      3.8028      3.4001    
  3.1701      3.0676      3.0676      3.1701      3.4001      3.8028      4.4320      5.3270      6.4895      8.0141    
  10.010      12.393      14.908      17.217      18.980      19.933      19.933      18.980      17.217      14.908    
  8.4735      7.1236      6.0127      5.0834      4.3461      3.8092      3.4476      3.2241      3.1048      3.0676    
  3.1048      3.2241      3.4476      3.8092      4.3461      5.0834      6.0127      7.1237      8.4735      10.010    
  11.564      12.903      13.811      14.132      13.811      12.903      11.564      10.010      6.2769      5.4958    
  4.8058      4.2468      3.8274      3.5333      3.3398      3.2241      3.1701      3.1701      3.2241      3.3398    
  3.5333      3.8274      4.2468      4.8058      5.4958      6.2770      7.1237      8.0141      8.8554      9.5180    
  9.8839      9.8839      9.5181      8.8554      8.0141      7.1236      4.9853      4.5281      4.1535      3.8698    
  3.6685      3.5333      3.4476      3.4000      3.3847      3.4001      3.4476      3.5333      3.6685      3.8698    
  4.1535      4.5281      4.9853      5.4958      6.0127      6.4895      6.8889      7.1594      7.2554      7.1594    
  6.8889      6.4895      6.0127      5.4958      4.2815      4.0869      3.9516      3.8698      3.8274      3.8092    
  3.8028      3.8011      3.8010      3.8028      3.8092      3.8274      3.8698      3.9516      4.0869      4.2815    
  4.5281      4.8058      5.0834      5.3270      5.5068      5.6019      5.6019      5.5068      5.3270      5.0834    
  4.8058      4.5282      4.0628      4.0870      4.1535      4.2468      4.3462      4.4320      4.4893      4.5093    
  4.4893      4.4320      4.3461      4.2467      4.1535      4.0869      4.0628      4.0869      4.1535      4.2467    
  4.3461      4.4320      4.4893      4.5093      4.4893      4.4320      4.3462      4.2468      4.1535      4.0870    
  4.2815      4.5282      4.8058      5.0834      5.3270      5.5068      5.6019      5.6019      5.5068      5.3270    
  5.0834      4.8058      4.5281      4.2815      4.0869      3.9516      3.8698      3.8274      3.8092      3.8028    
  3.8010      3.8011      3.8028      3.8092      3.8274      3.8698      3.9516      4.0869      4.9853      5.4958    
  6.0127      6.4895      6.8889      7.1594      7.2554      7.1594      6.8889      6.4895      6.0127      5.4958    
  4.9853      4.5281      4.1535      3.8698      3.6685      3.5333      3.4476      3.4001      3.3847      3.4000    
  3.4476      3.5333      3.6685      3.8698      4.1535      4.5281      6.2769      7.1236      8.0141      8.8554    
  9.5181      9.8839      9.8839      9.5180      8.8554      8.0141      7.1237      6.2770      5.4958      4.8058    
  4.2468      3.8274      3.5333      3.3398      3.2241      3.1701      3.1701      3.2241      3.3398      3.5333    
  3.8274      4.2468      4.8058      5.4958      8.4735      10.010      11.564      12.903      13.811      14.132    
  13.811      12.903      11.564      10.010      8.4735      7.1237      6.0127      5.0834      4.3461      3.8092    
  3.4476      3.2241      3.1048      3.0676      3.1048      3.2241      3.4476      3.8092      4.3461      5.0834    
  6.0127      7.1236      12.393      14.908      17.217      18.980      19.933      19.933      18.980      17.217    
  14.908      12.393      10.010      8.0141      6.4895      5.3270      4.4320      3.8028      3.4001      3.1701    
  3.0676      3.0676      3.1701      3.4001      3.8028      4.4320      5.3270      6.4894      8.0141      10.011    
  18.563      22.080      25.000      26.928      27.602      26.928      25.000      22.080      18.563      14.908    
  11.564      8.8554      6.8889      5.5068      4.4893      3.8010      3.3847      3.1701      3.1048      3.1701    
  3.3847      3.8011      4.4893      5.5068      6.8889      8.8554      11.564      14.908      26.962      31.289    
  34.534      36.275      36.275      34.534      31.290      26.962      22.080      17.216      12.903      9.5181    
  7.1593      5.6019      4.5094      3.8011      3.4000      3.2240      3.2241      3.4001      3.8010      4.5092    
  5.6020      7.1594      9.5180      12.903      17.217      22.080      37.203      42.088      45.332      46.472    
  45.332      42.088      37.203      31.290      25.000      18.979      13.811      9.8840      7.2554      5.6018    
  4.4893      3.8029      3.4476      3.3397      3.4476      3.8029      4.4893      5.6018      7.2554      9.8841    
  13.811      18.979      25.000      31.290      48.866      54.067      56.917      56.917      54.068      48.866    
  42.088      34.534      26.928      19.933      14.131      9.8841      7.1595      5.5066      4.4318      3.8094    
  3.5334      3.5331      3.8090      4.4321      5.5070      7.1592      9.8838      14.132      19.933      26.928    
  34.534      42.088      61.569      66.732      68.584      66.732      61.569      54.068      45.331      36.275    
  27.602      19.933      13.810      9.5181      6.8892      5.3270      4.3459      3.8275      3.6688      3.8274    
  4.3459      5.3270      6.8892      9.5181      13.810      19.933      27.602      36.275      45.331      54.068    
  74.604      79.049      79.048      74.604      66.732      56.917      46.472      36.275      26.928      18.980    
  12.903      8.8551      6.4897      5.0837      4.2465      3.8695      3.8700      4.2470      5.0832      6.4892    
  8.8557      12.904      18.979      26.928      36.275      46.472      56.917      66.732      86.488      89.203    
  86.488      79.048      68.585      56.918      45.332      34.533      25.000      17.217      11.564      8.0136    
  6.0127      4.8063      4.1535      3.9512      4.1535      4.8062      6.0127      8.0137      11.564      17.217    
  25.000      34.533      45.332      56.918      68.585      79.048      95.031      95.032      89.203      79.048    
  66.732      54.068      42.088      31.289      22.080      14.909      10.011      7.1232      5.4955      4.5285    
  4.0873      4.0866      4.5278      5.4961      7.1239      10.010      14.908      22.081      31.290      42.088    
  54.067      66.732      79.049      89.202      95.031      89.202      79.049      66.732      54.067      42.088    
  31.290      22.081      14.908      10.010      7.1239      5.4961      4.5278      4.0866      4.0873      4.5285    
  5.4955      7.1232      10.011      14.909      22.080      31.289      42.088      54.068      66.732      79.048    
  89.203      95.032      89.202      81.358      70.383      58.242      46.296      35.250      25.534      17.596    
  11.807      8.1542      6.0981      4.8672      4.1991      3.9917      4.1991      4.8672      6.0981      8.1542    
  11.807      17.596      25.534      35.250      46.296      58.242      70.383      81.358      89.202      92.072    
  79.049      70.383      59.719      48.558      37.833      28.096      19.826      13.468      9.1915      6.6829    
  5.2168      4.3427      3.9469      3.9464      4.3421      5.2174      6.6834      9.1909      13.467      19.827    
  28.096      37.832      48.557      59.720      70.383      79.048      83.980      83.981      66.732      58.241    
  48.557      38.730      29.458      21.295      14.740      10.088      7.2146      5.5402      4.4948      3.9384    
  3.7676      3.9384      4.4948      5.5402      7.2146      10.088      14.740      21.295      29.458      38.730    
  48.557      58.241      66.732      72.667      74.813      72.667      54.068      46.296      37.832      29.458    
  21.808      15.429      10.697      7.6263      5.7994      4.6336      3.9510      3.6471      3.6475      3.9514    
  4.6333      5.7990      7.6267      10.697      15.429      21.807      29.458      37.833      46.296      54.067    
  60.159      63.545      63.545      60.159      42.088      35.250      28.096      21.295      15.429      10.913    
  7.8530      5.9659      4.7371      3.9703      3.5709      3.4492      3.5709      3.9703      4.7371      5.9659    
  7.8530      10.913      15.429      21.295      28.096      35.251      42.088      47.852      51.749      53.133    
  51.749      47.852      31.289      25.534      19.827      14.740      10.697      7.8531      6.0240      4.7922    
  3.9848      3.5257      3.3238      3.3237      3.5255      3.9850      4.7924      6.0239      7.8529      10.697    
  14.740      19.826      25.534      31.290      36.455      40.385      42.519      42.519      40.385      36.455    
  22.080      17.596      13.467      10.088      7.6264      5.9661      4.7924      3.9904      3.5042      3.2543    
  3.1786      3.2543      3.5042      3.9904      4.7924      5.9661      7.6264      10.088      13.467      17.596    
  22.080      26.403      30.015      32.420      33.265      32.420      30.015      26.403      14.908      11.807    
  9.1912      7.2143      5.7992      4.7371      3.9849      3.5043      3.2321      3.1119      3.1119      3.2321    
  3.5043      3.9849      4.7371      5.7992      7.2143      9.1912      11.807      14.908      18.163      21.144    
  23.425      24.662      24.662      23.425      21.144      18.163      10.011      8.1546      6.6831      5.5402    
  4.6335      3.9701      3.5256      3.2543      3.1119      3.0680      3.1119      3.2543      3.5256      3.9701    
  4.6335      5.5402      6.6832      8.1547      10.010      12.134      14.272      16.112      17.356      17.796    
  17.356      16.112      14.272      12.134      7.1236      6.0981      5.2171      4.4951      3.9511      3.5709    
  3.3238      3.1785      3.1119      3.1119      3.1786      3.3238      3.5709      3.9512      4.4951      5.2171    
  6.0982      7.1237      8.3229      9.6248      10.866      11.844      12.384      12.384      11.844      10.866    
  9.6248      8.3228      5.4958      4.8668      4.3424      3.9384      3.6472      3.4494      3.3238      3.2543    
  3.2321      3.2543      3.3238      3.4494      3.6473      3.9384      4.3424      4.8667      5.4958      6.1871    
  6.9039      7.6142      8.2348      8.6627      8.8156      8.6627      8.2348      7.6142      6.9038      6.1870    
  4.5281      4.1991      3.9467      3.7673      3.6473      3.5709      3.5256      3.5043      3.5043      3.5256    
  3.5709      3.6473      3.7672      3.9466      4.1991      4.5281      4.9212      5.3479      5.7652      6.1273    
  6.3989      6.5465      6.5465      6.3989      6.1272      5.7651      5.3479      4.9212      4.0869      3.9921    
  3.9466      3.9384      3.9512      3.9701      3.9849      3.9904      3.9849      3.9701      3.9511      3.9384    
  3.9466      3.9921      4.0869      4.2335      4.4217      4.6301      4.8312      4.9973      5.1063      5.1441    
  5.1062      4.9973      4.8312      4.6302      4.4217      4.2335      4.0870      4.1991      4.3424      4.4951    
  4.6335      4.7371      4.7923      4.7923      4.7371      4.6335      4.4951      4.3424      4.1991      4.0869    
  4.0201      4.0014      4.0222      4.0668      4.1174      4.1592      4.1823      4.1824      4.1592      4.1174    
  4.0668      4.0222      4.0014      4.0202      4.5281      4.8668      5.2171      5.5402      5.7992      5.9661    
  6.0240      5.9661      5.7992      5.5402      5.2171      4.8667      4.5281      4.2335      4.0014      3.8348    
  3.7248      3.6567      3.6168      3.5957      3.5891      3.5957      3.6168      3.6567      3.7248      3.8348    
  4.0014      4.2335      5.4958      6.0981      6.6832      7.2143      7.6265      7.8530      7.8530      7.6265    
  7.2143      6.6832      6.0982      5.4959      4.9212      4.4216      4.0222      3.7248      3.5162      3.3777    
  3.2936      3.2537      3.2536      3.2935      3.3777      3.5162      3.7248      4.0222      4.4217      4.9212    
  7.1236      8.1546      9.1912      10.088      10.697      10.913      10.697      10.088      9.1912      8.1546    
  7.1236      6.1871      5.3479      4.6301      4.0668      3.6567      3.3777      3.2020      3.1061      3.0758    
  3.1061      3.2020      3.3777      3.6567      4.0668      4.6301      5.3479      6.1871      10.010      11.807    
  13.467      14.740      15.429      15.429      14.740      13.467      11.807      10.010      8.3228      6.9039    
  5.7652      4.8312      4.1174      3.6168      3.2936      3.1061      3.0212      3.0213      3.1061      3.2936    
  3.6167      4.1174      4.8312      5.7651      6.9039      8.3228      14.908      17.596      19.827      21.295    
  21.807      21.296      19.827      17.596      14.908      12.134      9.6248      7.6142      6.1272      4.9973    
  4.1592      3.5957      3.2537      3.0757      3.0213      3.0757      3.2537      3.5957      4.1592      4.9973    
  6.1272      7.6142      9.6249      12.134      22.080      25.534      28.096      29.458      29.458      28.096    
  25.534      22.080      18.163      14.272      10.866      8.2349      6.3989      5.1062      4.1824      3.5891    
  3.2536      3.1061      3.1061      3.2537      3.5891      4.1823      5.1063      6.3990      8.2348      10.866    
  14.272      18.163      31.290      35.250      37.832      38.730      37.832      35.250      31.290      26.403    
  21.144      16.112      11.844      8.6627      6.5465      5.1440      4.1824      3.5958      3.2936      3.2019    
  3.2936      3.5958      4.1823      5.1440      6.5465      8.6628      11.844      16.112      21.144      26.403    
  42.088      46.296      48.558      48.558      46.296      42.088      36.455      30.015      23.425      17.356    
  12.384      8.8157      6.5466      5.1061      4.1591      3.6169      3.3778      3.3776      3.6166      4.1593    
  5.1063      6.5464      8.8155      12.384      17.356      23.425      30.015      36.455      54.068      58.241    
  59.719      58.241      54.068      47.852      40.385      32.420      24.663      17.796      12.384      8.6627    
  6.3992      4.9973      4.1172      3.6567      3.5164      3.6567      4.1172      4.9973      6.3992      8.6627    
  12.384      17.796      24.663      32.420      40.385      47.852      66.732      70.383      70.383      66.732    
  60.160      51.749      42.519      33.265      24.663      17.356      11.844      8.2346      6.1275      4.8315    
  4.0665      3.7246      3.7250      4.0670      4.8310      6.1270      8.2351      11.844      17.356      24.662    
  33.265      42.519      51.749      60.159      79.049      81.359      79.049      72.667      63.545      53.133    
  42.519      32.420      23.425      16.112      10.866      7.6138      5.7652      4.6305      4.0222      3.8345    
  4.0222      4.6305      5.7651      7.6138      10.866      16.112      23.425      32.420      42.519      53.133    
  63.545      72.667      89.202      89.203      83.981      74.813      63.545      51.749      40.385      30.014    
  21.144      14.272      9.6251      6.9035      5.3476      4.4220      4.0017      4.0011      4.4213      5.3482    
  6.9042      9.6245      14.272      21.144      30.015      40.385      51.749      63.545      74.814      83.980    
  95.031      92.071      83.981      72.667      60.159      47.852      36.456      26.403      18.162      12.134    
  8.3233      6.1870      4.9207      4.2335      4.0206      4.2335      4.9207      6.1870      8.3233      12.134    
  18.162      26.403      36.456      47.852      60.159      72.667      83.981      92.071      86.488      79.048    
  68.585      56.918      45.332      34.533      25.000      17.217      11.564      8.0137      6.0127      4.8062    
  4.1535      3.9512      4.1535      4.8063      6.0127      8.0136      11.564      17.217      25.000      34.533    
  45.332      56.918      68.585      79.048      86.488      89.203      79.049      70.383      59.719      48.558    
  37.833      28.096      19.826      13.468      9.1915      6.6829      5.2168      4.3427      3.9469      3.9464    
  4.3421      5.2174      6.6834      9.1909      13.467      19.827      28.096      37.832      48.557      59.720    
  70.383      79.048      83.980      83.981      68.585      59.719      49.681      39.571      30.091      21.761    
  15.061      10.288      7.3288      5.6139      4.5465      3.9769      3.8018      3.9769      4.5465      5.6139    
  7.3288      10.288      15.061      21.761      30.091      39.571      49.680      59.719      68.585      74.814    
  77.072      74.814      56.917      48.558      39.571      30.777      22.786      16.116      11.134      7.8795    
  5.9533      4.7407      4.0264      3.7075      3.7079      4.0268      4.7403      5.9529      7.8799      11.135    
  16.115      22.786      30.778      39.572      48.557      56.917      63.545      67.256      67.256      63.545    
  45.332      37.833      30.090      22.786      16.483      11.596      8.2535      6.2016      4.8981      4.0793    
  3.6508      3.5200      3.6508      4.0793      4.8981      6.2016      8.2535      11.596      16.483      22.786    
  30.090      37.833      45.332      51.749      56.140      57.709      56.140      51.749      34.534      28.096    
  21.761      16.115      11.595      8.3861      6.3348      5.0003      4.1207      3.6179      3.3964      3.3962    
  3.6176      4.1209      5.0005      6.3347      8.3859      11.595      16.116      21.761      28.096      34.534    
  40.385      44.896      47.369      47.369      44.896      40.385      25.000      19.827      15.062      11.135    
  8.2534      6.3348      5.0359      4.1435      3.6003      3.3209      3.2363      3.3209      3.6003      4.1435    
  5.0359      6.3348      8.2534      11.135      15.061      19.827      25.000      30.015      34.245      37.088    
  38.092      37.088      34.245      30.015      17.217      13.467      10.288      7.8797      6.2017      5.0004    
  4.1436      3.5949      3.2850      3.1489      3.1489      3.2851      3.5948      4.1435      5.0005      6.2018    
  7.8797      10.287      13.467      17.217      21.144      24.752      27.528      29.040      29.040      27.528    
  24.752      21.144      11.564      9.1912      7.3285      5.9531      4.8981      4.1208      3.6004      3.2851    
  3.1212      3.0711      3.1212      3.2850      3.6003      4.1208      4.8981      5.9531      7.3285      9.1912    
  11.564      14.272      16.994      19.337      20.924      21.486      20.924      19.337      16.994      14.272    
  8.0141      6.6831      5.6139      4.7405      4.0791      3.6178      3.3209      3.1489      3.0711      3.0711    
  3.1489      3.3209      3.6177      4.0791      4.7405      5.6139      6.6832      8.0141      9.6248      11.388    
  13.069      14.395      15.127      15.127      14.395      13.069      11.388      9.6248      6.0127      5.2171    
  4.5468      4.0266      3.6508      3.3963      3.2362      3.1489      3.1212      3.1489      3.2362      3.3963    
  3.6508      4.0266      4.5468      5.2171      6.0127      6.9039      7.8942      8.9102      9.8097      10.433    
  10.656      10.433      9.8097      8.9102      7.8942      6.9039      4.8058      4.3424      3.9769      3.7077    
  3.5202      3.3962      3.3209      3.2851      3.2850      3.3209      3.3963      3.5202      3.7077      3.9769    
  4.3424      4.8058      5.3479      5.9273      6.4954      7.0154      7.4240      7.6509      7.6509      7.4241    
  7.0154      6.4954      5.9273      5.3479      4.1535      3.9467      3.8015      3.7077      3.6508      3.6177    
  3.6003      3.5949      3.6003      3.6177      3.6508      3.7077      3.8015      3.9466      4.1535      4.4217    
  4.7362      5.0683      5.3808      5.6358      5.8022      5.8600      5.8022      5.6358      5.3808      5.0683    
  4.7362      4.4217      3.9516      3.9466      3.9769      4.0266      4.0791      4.1208      4.1435      4.1435    
  4.1208      4.0790      4.0266      3.9769      3.9467      3.9517      4.0014      4.0951      4.2212      4.3600    
  4.4888      4.5871      4.6400      4.6400      4.5870      4.4888      4.3600      4.2213      4.0951      4.0014    
  4.1535      4.3424      4.5468      4.7405      4.8981      5.0004      5.0358      5.0004      4.8981      4.7405    
  4.5468      4.3424      4.1535      4.0014      3.8971      3.8401      3.8201      3.8228      3.8343      3.8448    
  3.8488      3.8448      3.8343      3.8228      3.8201      3.8401      3.8972      4.0014      4.8058      5.2171    
  5.6139      5.9531      6.2018      6.3347      6.3348      6.2018      5.9531      5.6139      5.2171      4.8058    
  4.4216      4.0951      3.8401      3.6547      3.5275      3.4441      3.3936      3.3696      3.3695      3.3936    
  3.4442      3.5275      3.6547      3.8401      4.0951      4.4217      6.0127      6.6831      7.3285      7.8797    
  8.2535      8.3859      8.2535      7.8797      7.3285      6.6832      6.0127      5.3479      4.7362      4.2212    
  3.8201      3.5275      3.3256      3.1955      3.1227      3.0992      3.1227      3.1955      3.3256      3.5275    
  3.8201      4.2212      4.7362      5.3479      8.0141      9.1912      10.288      11.135      11.595      11.595    
  11.134      10.288      9.1912      8.0141      6.9039      5.9273      5.0683      4.3600      3.8228      3.4442    
  3.1955      3.0477      2.9793      2.9793      3.0477      3.1955      3.4441      3.8228      4.3600      5.0683    
  5.9273      6.9038      11.564      13.467      15.061      16.116      16.483      16.116      15.061      13.467    
  11.564      9.6248      7.8942      6.4954      5.3808      4.4888      3.8343      3.3936      3.1227      2.9793    
  2.9348      2.9793      3.1227      3.3936      3.8343      4.4888      5.3808      6.4954      7.8941      9.6248    
  17.217      19.827      21.761      22.786      22.786      21.761      19.827      17.217      14.272      11.388    
  8.9102      7.0154      5.6358      4.5870      3.8448      3.3696      3.0992      2.9793      2.9793      3.0992    
  3.3696      3.8448      4.5870      5.6358      7.0154      8.9102      11.388      14.272      25.000      28.096    
  30.090      30.777      30.090      28.096      25.000      21.144      16.994      13.069      9.8097      7.4241    
  5.8022      4.6399      3.8488      3.3696      3.1227      3.0477      3.1227      3.3696      3.8488      4.6399    
  5.8022      7.4241      9.8097      13.069      16.994      21.144      34.534      37.832      39.571      39.572    
  37.832      34.534      30.015      24.752      19.337      14.395      10.433      7.6510      5.8601      4.6399    
  3.8447      3.3937      3.1956      3.1954      3.3935      3.8449      4.6401      5.8600      7.6508      10.433    
  14.395      19.337      24.752      30.015      45.332      48.558      49.681      48.558      45.332      40.385    
  34.245      27.528      20.924      15.127      10.656      7.6509      5.8024      4.5870      3.8342      3.4441    
  3.3258      3.4441      3.8342      4.5870      5.8023      7.6509      10.656      15.127      20.924      27.528    
  34.245      40.385      56.917      59.719      59.719      56.917      51.749      44.896      37.088      29.040    
  21.486      15.127      10.433      7.4239      5.6360      4.4889      3.8227      3.5273      3.5276      3.8230    
  4.4886      5.6356      7.4242      10.433      15.127      21.486      29.040      37.088      44.896      51.749    
  68.585      70.383      68.585      63.545      56.140      47.369      38.092      29.040      20.924      14.396    
  9.8097      7.0151      5.3808      4.3603      3.8201      3.6544      3.8201      4.3603      5.3808      7.0151    
  9.8097      14.396      20.924      29.040      38.092      47.369      56.140      63.545      79.048      79.049    
  74.814      67.256      57.709      47.369      37.088      27.527      19.337      13.070      8.9105      6.4951    
  5.0680      4.2215      3.8403      3.8398      4.2210      5.0686      6.4957      8.9100      13.069      19.337    
  27.528      37.087      47.369      57.709      67.256      74.813      86.488      83.980      77.073      67.256    
  56.140      44.896      34.245      24.752      16.994      11.388      7.8946      5.9273      4.7358      4.0951    
  3.8976      4.0951      4.7358      5.9273      7.8946      11.388      16.994      24.752      34.245      44.896    
  56.140      67.256      77.073      83.980      89.202      83.980      74.814      63.545      51.749      40.385    
  30.015      21.144      14.272      9.6245      6.9042      5.3482      4.4213      4.0011      4.0017      4.4220    
  5.3476      6.9035      9.6251      14.272      21.144      30.014      40.385      51.749      63.545      74.813    
  83.981      89.203      74.604      66.732      56.917      46.472      36.275      26.928      18.979      12.904    
  8.8557      6.4892      5.0832      4.2470      3.8700      3.8695      4.2465      5.0837      6.4897      8.8551    
  12.903      18.980      26.928      36.275      46.472      56.917      66.732      74.604      79.048      79.049    
  66.732      58.241      48.557      38.730      29.458      21.295      14.740      10.088      7.2146      5.5402    
  4.4948      3.9384      3.7676      3.9384      4.4948      5.5402      7.2146      10.088      14.740      21.295    
  29.458      38.730      48.557      58.241      66.732      72.667      74.813      72.667      56.917      48.558    
  39.571      30.777      22.786      16.116      11.134      7.8795      5.9533      4.7407      4.0264      3.7075    
  3.7079      4.0268      4.7403      5.9529      7.8799      11.135      16.115      22.786      30.778      39.572    
  48.557      56.917      63.545      67.256      67.256      63.545      46.472      38.730      30.777      23.299    
  16.848      11.834      8.3944      6.2835      4.9539      4.1171      3.6785      3.5445      3.6785      4.1171    