unknown system                          
   1.00000000000000     
     2.805658    0.000000    0.000000
     1.402829    2.429771    0.000000
     1.402829    0.809924    2.290810
   Pd
     1
Direct
  0.000000  0.000000  0.000000
 
   28   28   28
 0.98164583377E+02 0.95031565211E+02 0.86488672161E+02 0.74603822400E+02 0.61568237822E+02
 0.48866333125E+02 0.37203800951E+02 0.26961920127E+02 0.18562471842E+02 0.12393069009E+02
 0.84739345637E+01 0.62769429894E+01 0.49848190782E+01 0.42814927920E+01 0.40632916921E+01
 0.42814927920E+01 0.49848190782E+01 0.62769429894E+01 0.84739345637E+01 0.12393069009E+02
 0.18562471842E+02 0.26961920127E+02 0.37203800951E+02 0.48866333125E+02 0.61568237822E+02
 0.74603822400E+02 0.86488672161E+02 0.95031565211E+02 0.95031238788E+02 0.89202123025E+02
 0.79049031151E+02 0.66732338228E+02 0.54067281596E+02 0.42087571125E+02 0.31289888443E+02
 0.22080703761E+02 0.14908063774E+02 0.10010185870E+02 0.71239447630E+01 0.54961486770E+01
 0.45277813210E+01 0.40866072042E+01 0.40872917523E+01 0.45284792544E+01 0.54954828665E+01
 0.71232366671E+01 0.10010813600E+02 0.14908737612E+02 0.22080065372E+02 0.31289219751E+02
 0.42088216456E+02 0.54067952127E+02 0.66731659052E+02 0.79048241243E+02 0.89202586443E+02
 0.95031800835E+02 0.86488196739E+02 0.79048282751E+02 0.68584765420E+02 0.56917715408E+02
 0.45331764526E+02 0.34533453766E+02 0.24999601032E+02 0.17216996844E+02 0.11563622192E+02
 0.80136684383E+01 0.60126980711E+01 0.48062408282E+01 0.41535024092E+01 0.39512120183E+01
 0.41535150253E+01 0.48062534588E+01 0.60126966643E+01 0.80136499252E+01 0.11563598184E+02
 0.17216983967E+02 0.24999604691E+02 0.34533460057E+02 0.45331745792E+02 0.56917651836E+02
 0.68584661029E+02 0.79048171187E+02 0.86488124546E+02 0.89202681999E+02 0.74604077961E+02
 0.66731756244E+02 0.56917037869E+02 0.46472093950E+02 0.36275152398E+02 0.26927708784E+02
 0.18979358889E+02 0.12903747796E+02 0.88556528329E+01 0.64891641466E+01 0.50831681088E+01
 0.42470216992E+01 0.38700251719E+01 0.38695035894E+01 0.42465010414E+01 0.50836986049E+01
 0.64897058244E+01 0.88551379855E+01 0.12903195817E+02 0.18979843474E+02 0.26928237363E+02
 0.36274657791E+02 0.46471540713E+02 0.56917471538E+02 0.66732232652E+02 0.74603595417E+02
 0.79048337604E+02 0.79048823226E+02 0.61569000740E+02 0.54067608019E+02 0.45331477030E+02
 0.36274896837E+02 0.27602094050E+02 0.19933030548E+02 0.13810483513E+02 0.95180735385E+01
 0.68892402831E+01 0.53270012988E+01 0.43458505966E+01 0.38274400063E+01 0.36688144278E+01
 0.38274517341E+01 0.43458652228E+01 0.53270079654E+01 0.68892347077E+01 0.95180619884E+01
 0.13810478034E+02 0.19933040758E+02 0.27602118830E+02 0.36274925534E+02 0.45331496987E+02
 0.54067611497E+02 0.61568992523E+02 0.66731977091E+02 0.68584373532E+02 0.66731985475E+02
 0.48866481075E+02 0.42088045497E+02 0.34533727794E+02 0.26927816396E+02 0.19933178497E+02
 0.14131661462E+02 0.98837691158E+01 0.71592251080E+01 0.55069671099E+01 0.44321206874E+01
 0.38090389081E+01 0.35331029909E+01 0.35334140542E+01 0.38093603293E+01 0.44318268668E+01
 0.55066471143E+01 0.71595029323E+01 0.98840775741E+01 0.14131394076E+02 0.19932903403E+02
 0.26928131370E+02 0.34534063127E+02 0.42087800059E+02 0.48866207843E+02 0.54067759446E+02
 0.56917363927E+02 0.56917081909E+02 0.54067477755E+02 0.37203325529E+02 0.31289697632E+02
 0.24999601032E+02 0.18979478839E+02 0.13810771009E+02 0.98840526765E+01 0.72553704950E+01
 0.56017790331E+01 0.44892706859E+01 0.38029421005E+01 0.34476048542E+01 0.33396630451E+01
 0.34476017214E+01 0.38029400572E+01 0.44892734209E+01 0.56017856530E+01 0.72553737439E+01
 0.98840464785E+01 0.13810754539E+02 0.18979463230E+02 0.24999602157E+02 0.31289725447E+02
 0.37203377609E+02 0.42087812397E+02 0.45331784483E+02 0.46471931886E+02 0.45331745792E+02
 0.42087754422E+02 0.26961867831E+02 0.22080429635E+02 0.17216627162E+02 0.12903439939E+02
 0.95180212425E+01 0.71594253534E+01 0.56019669406E+01 0.45092246625E+01 0.38009992108E+01
 0.34001281366E+01 0.32241327936E+01 0.32240112972E+01 0.33999966316E+01 0.38011050980E+01
 0.45093579782E+01 0.56018829216E+01 0.71593043468E+01 0.95180782720E+01 0.12903489987E+02
 0.17216486306E+02 0.22080324305E+02 0.26962004103E+02 0.31289642132E+02 0.34533862882E+02
 0.36274873238E+02 0.36274965648E+02 0.34533934331E+02 0.31289493877E+02 0.18562918649E+02
 0.14908390197E+02 0.11563650807E+02 0.88553972719E+01 0.68889241715E+01 0.55068191606E+01
 0.44892993014E+01 0.38010515068E+01 0.33847394854E+01 0.31700877365E+01 0.31048354320E+01
 0.31700759306E+01 0.33847240006E+01 0.38010432619E+01 0.44893018398E+01 0.55068280140E+01
 0.68889267003E+01 0.88553845235E+01 0.11563622931E+02 0.14908354485E+02 0.18562889224E+02
 0.22080376601E+02 0.24999630772E+02 0.26927983421E+02 0.27601802719E+02 0.26927981802E+02
 0.24999633306E+02 0.22080391795E+02 0.12393068737E+02 0.10010512020E+02 0.80140906882E+01
 0.64894199797E+01 0.53270010267E+01 0.44319724660E+01 0.38028067612E+01 0.34000761126E+01
 0.31700874644E+01 0.30675867443E+01 0.30675898758E+01 0.31700861581E+01 0.34000559090E+01
 0.38027830170E+01 0.44319729523E+01 0.53270362633E+01 0.64894687010E+01 0.80141188970E+01
 0.10010499462E+02 0.12393016934E+02 0.14908354213E+02 0.17216538330E+02 0.18979599113E+02
 0.19933051625E+02 0.19933040486E+02 0.18979587641E+02 0.17216562261E+02 0.14908411462E+02
 0.84734591413E+01 0.71236314041E+01 0.60126980711E+01 0.50834106062E+01 0.43461380927E+01
 0.38091999211E+01 0.34476048542E+01 0.32240674340E+01 0.31048068166E+01 0.30676026673E+01
 0.31048112164E+01 0.32240735969E+01 0.34476096220E+01 0.38092041978E+01 0.43461464562E+01
 0.50834269780E+01 0.60127261283E+01 0.71236617458E+01 0.84734841072E+01 0.10010486127E+02
 0.11563594315E+02 0.12903450755E+02 0.13810754539E+02 0.14131528962E+02 0.13810765530E+02
 0.12903464442E+02 0.11563598184E+02 0.10010474114E+02 0.62769317243E+01 0.54958335196E+01
 0.48058301155E+01 0.42467548731E+01 0.38274287411E+01 0.35332622054E+01 0.33398099217E+01
 0.32240523281E+01 0.31700646655E+01 0.31700971512E+01 0.32240979257E+01 0.33398120530E+01
 0.35332554866E+01 0.38274482791E+01 0.42467544420E+01 0.48057844123E+01 0.54958283589E+01
 0.62770256479E+01 0.71236599473E+01 0.80141079040E+01 0.88553732584E+01 0.95180372411E+01
 0.98839221322E+01 0.98839183596E+01 0.95180507233E+01 0.88554048116E+01 0.80140831682E+01
 0.71235518245E+01 0.49852818162E+01 0.45281077435E+01 0.41535150936E+01 0.38697696108E+01
 0.36685142473E+01 0.35332661048E+01 0.34476144058E+01 0.34000489277E+01 0.33847399316E+01
 0.34000561811E+01 0.34476223064E+01 0.35332667517E+01 0.36685050335E+01 0.38697548880E+01
 0.41535068250E+01 0.45281134909E+01 0.49853020943E+01 0.54958396241E+01 0.60127388127E+01
 0.64894689731E+01 0.68889426314E+01 0.71593566429E+01 0.72553864283E+01 0.71593549829E+01
 0.68889345271E+01 0.64894502633E+01 0.60127093487E+01 0.54958092890E+01 0.42814880224E+01
 0.40869288572E+01 0.39516387658E+01 0.38697639200E+01 0.38274469646E+01 0.38092076103E+01
 0.38028092154E+01 0.38010575715E+01 0.38010384924E+01 0.38027785195E+01 0.38091959038E+01
 0.38274417835E+01 0.38697501185E+01 0.39516347161E+01 0.40869424507E+01 0.42814813868E+01
 0.45281087214E+01 0.48057909079E+01 0.50834448111E+01 0.53270407608E+01 0.55068232445E+01
 0.56019304481E+01 0.56019260339E+01 0.55067998332E+01 0.53270031958E+01 0.50834382743E+01
 0.48058362505E+01 0.45281576015E+01 0.40628162698E+01 0.40869653298E+01 0.41535150253E+01
 0.42467566024E+01 0.43461527189E+01 0.44319748162E+01 0.44892734209E+01 0.45093056822E+01
 0.44892732243E+01 0.44319726802E+01 0.43461464562E+01 0.42467431768E+01 0.41534941406E+01
 0.40869376812E+01 0.40627856953E+01 0.40869376812E+01 0.41534941406E+01 0.42467431768E+01
 0.43461464562E+01 0.44319726802E+01 0.44892732243E+01 0.45093056822E+01 0.44892734209E+01
 0.44319748162E+01 0.43461527189E+01 0.42467566024E+01 0.41535150253E+01 0.40869653298E+01
 0.42814880224E+01 0.45281576015E+01 0.48058362505E+01 0.50834382743E+01 0.53270031958E+01
 0.55067998332E+01 0.56019260339E+01 0.56019304481E+01 0.55068232445E+01 0.53270407608E+01
 0.50834448111E+01 0.48057909079E+01 0.45281087214E+01 0.42814813868E+01 0.40869424507E+01
 0.39516347161E+01 0.38697501185E+01 0.38274417835E+01 0.38091959038E+01 0.38027785195E+01
 0.38010384924E+01 0.38010575715E+01 0.38028092154E+01 0.38092076103E+01 0.38274469646E+01
 0.38697639200E+01 0.39516387658E+01 0.40869288572E+01 0.49852818162E+01 0.54958092890E+01
 0.60127093487E+01 0.64894502633E+01 0.68889345271E+01 0.71593549829E+01 0.72553864283E+01
 0.71593566429E+01 0.68889426314E+01 0.64894689731E+01 0.60127388127E+01 0.54958396241E+01
 0.49853020943E+01 0.45281134909E+01 0.41535068250E+01 0.38697548880E+01 0.36685050335E+01
 0.35332667517E+01 0.34476223064E+01 0.34000561811E+01 0.33847399316E+01 0.34000489277E+01
 0.34476144058E+01 0.35332661048E+01 0.36685142473E+01 0.38697696108E+01 0.41535150936E+01
 0.45281077435E+01 0.62769317243E+01 0.71235518245E+01 0.80140831682E+01 0.88554048116E+01
 0.95180507233E+01 0.98839183596E+01 0.98839221322E+01 0.95180372411E+01 0.88553732584E+01
 0.80141079040E+01 0.71236599473E+01 0.62770256479E+01 0.54958283589E+01 0.48057844123E+01
 0.42467544420E+01 0.38274482791E+01 0.35332554866E+01 0.33398120530E+01 0.32240979257E+01
 0.31700971512E+01 0.31700646655E+01 0.32240523281E+01 0.33398099217E+01 0.35332622054E+01
 0.38274287411E+01 0.42467548731E+01 0.48058301155E+01 0.54958335196E+01 0.84734591413E+01
 0.10010474114E+02 0.11563598184E+02 0.12903464442E+02 0.13810765530E+02 0.14131528962E+02
 0.13810754539E+02 0.12903450755E+02 0.11563594315E+02 0.10010486127E+02 0.84734841072E+01
 0.71236617458E+01 0.60127261283E+01 0.50834269780E+01 0.43461464562E+01 0.38092041978E+01
 0.34476096220E+01 0.32240735969E+01 0.31048112164E+01 0.30676026673E+01 0.31048068166E+01
 0.32240674340E+01 0.34476048542E+01 0.38091999211E+01 0.43461380927E+01 0.50834106062E+01
 0.60126980711E+01 0.71236314041E+01 0.12393068737E+02 0.14908411462E+02 0.17216562261E+02
 0.18979587641E+02 0.19933040486E+02 0.19933051625E+02 0.18979599113E+02 0.17216538330E+02
 0.14908354213E+02 0.12393016934E+02 0.10010499462E+02 0.80141188970E+01 0.64894687010E+01
 0.53270362633E+01 0.44319729523E+01 0.38027830170E+01 0.34000559090E+01 0.31700861581E+01
 0.30675898758E+01 0.30675867443E+01 0.31700874644E+01 0.34000761126E+01 0.38028067612E+01
 0.44319724660E+01 0.53270010267E+01 0.64894199797E+01 0.80140906882E+01 0.10010512020E+02
 0.18562918649E+02 0.22080391795E+02 0.24999633306E+02 0.26927981802E+02 0.27601802719E+02
 0.26927983421E+02 0.24999630772E+02 0.22080376601E+02 0.18562889224E+02 0.14908354485E+02
 0.11563622931E+02 0.88553845235E+01 0.68889267003E+01 0.55068280140E+01 0.44893018398E+01
 0.38010432619E+01 0.33847240006E+01 0.31700759306E+01 0.31048354320E+01 0.31700877365E+01
 0.33847394854E+01 0.38010515068E+01 0.44892993014E+01 0.55068191606E+01 0.68889241715E+01
 0.88553972719E+01 0.11563650807E+02 0.14908390197E+02 0.26961867831E+02 0.31289493877E+02
 0.34533934331E+02 0.36274965648E+02 0.36274873238E+02 0.34533862882E+02 0.31289642132E+02
 0.26962004103E+02 0.22080324305E+02 0.17216486306E+02 0.12903489987E+02 0.95180782720E+01
 0.71593043468E+01 0.56018829216E+01 0.45093579782E+01 0.38011050980E+01 0.33999966316E+01
 0.32240112972E+01 0.32241327936E+01 0.34001281366E+01 0.38009992108E+01 0.45092246625E+01
 0.56019669406E+01 0.71594253534E+01 0.95180212425E+01 0.12903439939E+02 0.17216627162E+02
 0.22080429635E+02 0.37203325529E+02 0.42087754422E+02 0.45331745792E+02 0.46471931886E+02
 0.45331784483E+02 0.42087812397E+02 0.37203377609E+02 0.31289725447E+02 0.24999602157E+02
 0.18979463230E+02 0.13810754539E+02 0.98840464785E+01 0.72553737439E+01 0.56017856530E+01
 0.44892734209E+01 0.38029400572E+01 0.34476017214E+01 0.33396630451E+01 0.34476048542E+01
 0.38029421005E+01 0.44892706859E+01 0.56017790331E+01 0.72553704950E+01 0.98840526765E+01
 0.13810771009E+02 0.18979478839E+02 0.24999601032E+02 0.31289697632E+02 0.48866481075E+02
 0.54067477755E+02 0.56917081909E+02 0.56917363927E+02 0.54067759446E+02 0.48866207843E+02
 0.42087800059E+02 0.34534063127E+02 0.26928131370E+02 0.19932903403E+02 0.14131394076E+02
 0.98840775741E+01 0.71595029323E+01 0.55066471143E+01 0.44318268668E+01 0.38093603293E+01
 0.35334140542E+01 0.35331029909E+01 0.38090389081E+01 0.44321206874E+01 0.55069671099E+01
 0.71592251080E+01 0.98837691158E+01 0.14131661462E+02 0.19933178497E+02 0.26927816396E+02
 0.34533727794E+02 0.42088045497E+02 0.61569000740E+02 0.66731985475E+02 0.68584373532E+02
 0.66731977091E+02 0.61568992523E+02 0.54067611497E+02 0.45331496987E+02 0.36274925534E+02
 0.27602118830E+02 0.19933040758E+02 0.13810478034E+02 0.95180619884E+01 0.68892347077E+01
 0.53270079654E+01 0.43458652228E+01 0.38274517341E+01 0.36688144278E+01 0.38274400063E+01
 0.43458505966E+01 0.53270012988E+01 0.68892402831E+01 0.95180735385E+01 0.13810483513E+02
 0.19933030548E+02 0.27602094050E+02 0.36274896837E+02 0.45331477030E+02 0.54067608019E+02
 0.74604077961E+02 0.79048823226E+02 0.79048337604E+02 0.74603595417E+02 0.66732232652E+02
 0.56917471538E+02 0.46471540713E+02 0.36274657791E+02 0.26928237363E+02 0.18979843474E+02
 0.12903195817E+02 0.88551379855E+01 0.64897058244E+01 0.50836986049E+01 0.42465010414E+01
 0.38695035894E+01 0.38700251719E+01 0.42470216992E+01 0.50831681088E+01 0.64891641466E+01
 0.88556528329E+01 0.12903747796E+02 0.18979358889E+02 0.26927708784E+02 0.36275152398E+02
 0.46472093950E+02 0.56917037869E+02 0.66731756244E+02 0.86488196739E+02 0.89202681999E+02
 0.86488124546E+02 0.79048171187E+02 0.68584661029E+02 0.56917651836E+02 0.45331745792E+02
 0.34533460057E+02 0.24999604691E+02 0.17216983967E+02 0.11563598184E+02 0.80136499252E+01
 0.60126966643E+01 0.48062534588E+01 0.41535150253E+01 0.39512120183E+01 0.41535024092E+01
 0.48062408282E+01 0.60126980711E+01 0.80136684383E+01 0.11563622192E+02 0.17216996844E+02
 0.24999601032E+02 0.34533453766E+02 0.45331764526E+02 0.56917715408E+02 0.68584765420E+02
 0.79048282751E+02 0.95031238788E+02 0.95031800835E+02 0.89202586443E+02 0.79048241243E+02
 0.66731659052E+02 0.54067952127E+02 0.42088216456E+02 0.31289219751E+02 0.22080065372E+02
 0.14908737612E+02 0.10010813600E+02 0.71232366671E+01 0.54954828665E+01 0.45284792544E+01
 0.40872917523E+01 0.40866072042E+01 0.45277813210E+01 0.54961486770E+01 0.71239447630E+01
 0.10010185870E+02 0.14908063774E+02 0.22080703761E+02 0.31289888443E+02 0.42087571125E+02
 0.54067281596E+02 0.66732338228E+02 0.79049031151E+02 0.89202123025E+02 0.95031238788E+02
 0.89202123025E+02 0.79049031151E+02 0.66732338228E+02 0.54067281596E+02 0.42087571125E+02
 0.31289888443E+02 0.22080703761E+02 0.14908063774E+02 0.10010185870E+02 0.71239447630E+01
 0.54961486770E+01 0.45277813210E+01 0.40866072042E+01 0.40872917523E+01 0.45284792544E+01
 0.54954828665E+01 0.71232366671E+01 0.10010813600E+02 0.14908737612E+02 0.22080065372E+02
 0.31289219751E+02 0.42088216456E+02 0.54067952127E+02 0.66731659052E+02 0.79048241243E+02
 0.89202586443E+02 0.95031800835E+02 0.89202457162E+02 0.81358107040E+02 0.70383133198E+02
 0.58241870031E+02 0.46296232402E+02 0.35249836573E+02 0.25533933849E+02 0.17596337892E+02
 0.11806890444E+02 0.81541840918E+01 0.60981353061E+01 0.48671976338E+01 0.41990741322E+01
 0.39916889757E+01 0.41990690014E+01 0.48671995232E+01 0.60981377264E+01 0.81541637226E+01
 0.11806846562E+02 0.17596303203E+02 0.25533942326E+02 0.35249889208E+02 0.46296284790E+02
 0.58241840837E+02 0.70382952853E+02 0.81357816627E+02 0.89202227491E+02 0.92071577128E+02
 0.79048985242E+02 0.70382860531E+02 0.59719123656E+02 0.48557940298E+02 0.37832600987E+02
 0.28095802850E+02 0.19826308691E+02 0.13467589267E+02 0.91915174674E+01 0.66828611489E+01
 0.52168025434E+01 0.43427028949E+01 0.39469459373E+01 0.39463721891E+01 0.43421251444E+01
 0.52173730869E+01 0.66834442998E+01 0.91909420927E+01 0.13466969195E+02 0.19826831771E+02
 0.28096405716E+02 0.37832115175E+02 0.48557371550E+02 0.59719549466E+02 0.70383234442E+02
 0.79048286610E+02 0.83979929686E+02 0.83980537178E+02 0.66732335665E+02 0.58241430857E+02
 0.48557337296E+02 0.38729685257E+02 0.29458411669E+02 0.21295481051E+02 0.14739856330E+02
 0.10087993430E+02 0.72146136590E+01 0.55402149339E+01 0.44947782678E+01 0.39383876079E+01
 0.37675910768E+01 0.39384105236E+01 0.44947957736E+01 0.55402116399E+01 0.72146018960E+01
 0.10087986090E+02 0.14739853406E+02 0.21295482503E+02 0.29458418899E+02 0.38729687751E+02
 0.48557318636E+02 0.58241398136E+02 0.66732311379E+02 0.72667180124E+02 0.74813399051E+02
 0.72667188066E+02 0.54067786303E+02 0.46296407678E+02 0.37832143619E+02 0.29457906250E+02
 0.21807544448E+02 0.15429479360E+02 0.10696951994E+02 0.76263251043E+01 0.57993685617E+01
 0.46336420690E+01 0.39509626574E+01 0.36470831240E+01 0.36474631081E+01 0.39513563394E+01
 0.46332872275E+01 0.57989831834E+01 0.76266681481E+01 0.10697324612E+02 0.15429137868E+02
 0.21807186378E+02 0.29458274703E+02 0.37832553286E+02 0.46296115025E+02 0.54067450995E+02
 0.60159495925E+02 0.63545344096E+02 0.63545007208E+02 0.60159164320E+02 0.42087901795E+02
 0.35250453317E+02 0.28096078436E+02 0.21295302932E+02 0.15429300617E+02 0.10913033941E+02
 0.78530220688E+01 0.59659027598E+01 0.47371349954E+01 0.39702688411E+01 0.35708700183E+01
 0.34492460231E+01 0.35708739012E+01 0.39702717578E+01 0.47371331948E+01 0.59658952645E+01
 0.78530100174E+01 0.10913024605E+02 0.15429308357E+02 0.21295338484E+02 0.28096132311E+02
 0.35250503510E+02 0.42087932912E+02 0.47852011508E+02 0.51748957849E+02 0.53132542059E+02
 0.51748954434E+02 0.47851998169E+02 0.31289485028E+02 0.25534012779E+02 0.19826664267E+02
 0.14740105804E+02 0.10697051856E+02 0.78530980795E+01 0.60240180579E+01 0.47922307324E+01
 0.39848405702E+01 0.35256642809E+01 0.33238489619E+01 0.33236850094E+01 0.35254944140E+01
 0.39849942544E+01 0.47923992868E+01 0.60238704125E+01 0.78529285729E+01 0.10697180610E+02
 0.14740240569E+02 0.19826498977E+02 0.25533854173E+02 0.31289658437E+02 0.36455282826E+02
 0.40385173715E+02 0.42518693652E+02 0.42518810297E+02 0.40385248862E+02 0.36455067707E+02
 0.22080318593E+02 0.17595895306E+02 0.13467366596E+02 0.10087994568E+02 0.76264479185E+01
 0.59660774666E+01 0.47923615881E+01 0.39903586809E+01 0.35042487193E+01 0.32543183859E+01
 0.31785873287E+01 0.32543064090E+01 0.35042388969E+01 0.39903637270E+01 0.47923789986E+01
 0.59660903901E+01 0.76264326339E+01 0.10087941569E+02 0.13467290999E+02 0.17595837725E+02
 0.22080313835E+02 0.26402925600E+02 0.30014777438E+02 0.32419948541E+02 0.33264809271E+02
 0.32419908225E+02 0.30014716364E+02 0.26402880330E+02 0.14908379083E+02 0.11806873941E+02
 0.91912477913E+01 0.72142983117E+01 0.57991791635E+01 0.47371219604E+01 0.39849284001E+01
 0.35043159772E+01 0.32320767806E+01 0.31118809769E+01 0.31119011026E+01 0.32320924429E+01
 0.35042839438E+01 0.39848992639E+01 0.47371453634E+01 0.57992093014E+01 0.72142766092E+01
 0.91912079902E+01 0.11806861106E+02 0.14908360596E+02 0.18162704968E+02 0.21143964990E+02
 0.23425301218E+02 0.24662391358E+02 0.24662370739E+02 0.23425284930E+02 0.21144003870E+02
 0.18162758099E+02 0.10010517306E+02 0.81546298913E+01 0.66831352270E+01 0.55402070183E+01
 0.46334640921E+01 0.39700978962E+01 0.35255867619E+01 0.32543138824E+01 0.31118947785E+01
 0.30679684121E+01 0.31118923233E+01 0.32543100520E+01 0.35255752834E+01 0.39700791947E+01
 0.46334586045E+01 0.55402415231E+01 0.66831957827E+01 0.81546668366E+01 0.10010499891E+02
 0.12133632245E+02 0.14272077460E+02 0.16111702016E+02 0.17356168945E+02 0.17796117570E+02
 0.17356178218E+02 0.16111733033E+02 0.14272133775E+02 0.12133689907E+02 0.71236079492E+01
 0.60981486993E+01 0.52170915831E+01 0.44950933443E+01 0.39511291205E+01 0.35708804923E+01
 0.33237824255E+01 0.31785220748E+01 0.31118798740E+01 0.31119043054E+01 0.31785506768E+01
 0.33237696923E+01 0.35708635312E+01 0.39511531362E+01 0.44951225721E+01 0.52170910906E+01
 0.60981611755E+01 0.71236614351E+01 0.83228677847E+01 0.96248212195E+01 0.10865509824E+02
 0.11844092043E+02 0.12384297060E+02 0.12384282966E+02 0.11844086750E+02 0.10865542624E+02
 0.96248391228E+01 0.83228263279E+01 0.54958023986E+01 0.48667556766E+01 0.43424417531E+01
 0.39383885356E+01 0.36472448281E+01 0.34494213589E+01 0.33237773945E+01 0.32543061993E+01
 0.32320640748E+01 0.32543151844E+01 0.33237964758E+01 0.34494482354E+01 0.36472646047E+01
 0.39383814862E+01 0.43424091975E+01 0.48667299100E+01 0.54958251298E+01 0.61871135649E+01
 0.69039071352E+01 0.76142141172E+01 0.82348252640E+01 0.86626569959E+01 0.88156183901E+01
 0.86626777090E+01 0.82348371896E+01 0.76141856240E+01 0.69038379367E+01 0.61870440824E+01
 0.45281002549E+01 0.41990616259E+01 0.39466730005E+01 0.37672720969E+01 0.36472773346E+01
 0.35708648627E+01 0.35255789831E+01 0.35043025222E+01 0.35042875684E+01 0.35255654783E+01
 0.35708814991E+01 0.36472893401E+01 0.37672438346E+01 0.39466385103E+01 0.41990657373E+01
 0.45281215503E+01 0.49211665370E+01 0.53478987704E+01 0.57651713143E+01 0.61272581091E+01
 0.63989250170E+01 0.65465098177E+01 0.65465219884E+01 0.63989330960E+01 0.61272343051E+01
 0.57651422154E+01 0.53478937527E+01 0.49211631315E+01 0.40869385085E+01 0.39921243611E+01
 0.39466465311E+01 0.39384131543E+01 0.39511782309E+01 0.39700903988E+01 0.39849169994E+01
 0.39903697698E+01 0.39849129338E+01 0.39700687806E+01 0.39511414180E+01 0.39383869001E+01
 0.39466481837E+01 0.39921392402E+01 0.40869409886E+01 0.42334785097E+01 0.44216540060E+01
 0.46301276482E+01 0.48312315370E+01 0.49973462403E+01 0.51062533365E+01 0.51440899803E+01
 0.51062280404E+01 0.49973259172E+01 0.48312408968E+01 0.46301639252E+01 0.44216941509E+01
 0.42335009357E+01 0.40869637087E+01 0.41990733124E+01 0.43424053493E+01 0.44951198677E+01
 0.46334624608E+01 0.47371345865E+01 0.47923239156E+01 0.47923227622E+01 0.47371329050E+01
 0.46334615044E+01 0.44951137373E+01 0.43423914317E+01 0.41990565395E+01 0.40869436246E+01
 0.40201436844E+01 0.40013750978E+01 0.40221874542E+01 0.40667608559E+01 0.41173874571E+01
 0.41591727319E+01 0.41823493992E+01 0.41823540815E+01 0.41591785854E+01 0.41173862177E+01
 0.40667647312E+01 0.40222099348E+01 0.40014093757E+01 0.40201732940E+01 0.45281391636E+01
 0.48667573324E+01 0.52171056018E+01 0.55402126455E+01 0.57991510750E+01 0.59660703666E+01
 0.60239564544E+01 0.59660902583E+01 0.57991871209E+01 0.55402464220E+01 0.52171115308E+01
 0.48667299879E+01 0.45281030024E+01 0.42334728622E+01 0.40013865203E+01 0.38348421776E+01
 0.37247970089E+01 0.36566867754E+01 0.36167550792E+01 0.35957196943E+01 0.35891079861E+01
 0.35957305397E+01 0.36167677592E+01 0.36566927847E+01 0.37247927918E+01 0.38348339964E+01
 0.40013868527E+01 0.42334929724E+01 0.54957993163E+01 0.60981225600E+01 0.66831736711E+01
 0.72142854002E+01 0.76264798905E+01 0.78529983189E+01 0.78530154502E+01 0.76264987433E+01
 0.72142777497E+01 0.66831833176E+01 0.60981814515E+01 0.54958523494E+01 0.49211640529E+01
 0.44216416725E+01 0.40221989600E+01 0.37248180409E+01 0.35161660955E+01 0.33777335336E+01
 0.32935826889E+01 0.32536743832E+01 0.32536468484E+01 0.32935467006E+01 0.33777429873E+01
 0.35161883297E+01 0.37248095658E+01 0.40221873648E+01 0.44216576019E+01 0.49211656156E+01
 0.71235679846E+01 0.81545874114E+01 0.91912162658E+01 0.10088000262E+02 0.10697146517E+02
 0.10912831550E+02 0.10697103186E+02 0.10087959153E+02 0.91912216733E+01 0.81546447259E+01
 0.71236495479E+01 0.61871305197E+01 0.53479084570E+01 0.46301159516E+01 0.40667580510E+01
 0.36567039638E+01 0.33777458802E+01 0.32019752743E+01 0.31061144866E+01 0.30757518527E+01
 0.31061024241E+01 0.32019501483E+01 0.33777225724E+01 0.36567078198E+01 0.40667873744E+01
 0.46301387686E+01 0.53478885478E+01 0.61870636644E+01 0.10010494720E+02 0.11806841763E+02
 0.13467240172E+02 0.14740186545E+02 0.15429322265E+02 0.15429300639E+02 0.14740155970E+02
 0.13467243807E+02 0.11806857810E+02 0.10010493681E+02 0.83228497222E+01 0.69038984143E+01
 0.57651712797E+01 0.48312250635E+01 0.41173782294E+01 0.36167527016E+01 0.32935803461E+01
 0.31061081820E+01 0.30212428438E+01 0.30212561990E+01 0.31061197984E+01 0.32935634113E+01
 0.36167373107E+01 0.41173894837E+01 0.48312295873E+01 0.57651361102E+01 0.69038603372E+01
 0.83228443904E+01 0.14908399893E+02 0.17595861211E+02 0.19826562047E+02 0.21295483443E+02
 0.21807356641E+02 0.21295513785E+02 0.19826582780E+02 0.17595837527E+02 0.14908340787E+02
 0.12133637342E+02 0.96248394201E+01 0.76142141289E+01 0.61272419329E+01 0.49973407912E+01
 0.41591819149E+01 0.35957196282E+01 0.32536557229E+01 0.30757348627E+01 0.30212563371E+01
 0.30757399691E+01 0.32536733935E+01 0.35957434264E+01 0.41591879644E+01 0.49973150735E+01
 0.61271986671E+01 0.76141901284E+01 0.96248565357E+01 0.12133692424E+02 0.22080364141E+02
 0.25533909835E+02 0.28096153132E+02 0.29458120091E+02 0.29458068765E+02 0.28096103288E+02
 0.25533959095E+02 0.22080397632E+02 0.18162688428E+02 0.14272047671E+02 0.10865548144E+02
 0.82348701720E+01 0.63989048524E+01 0.51062236785E+01 0.41823789495E+01 0.35891467066E+01
 0.32536291680E+01 0.31060727529E+01 0.31061401855E+01 0.32537097422E+01 0.35891063294E+01
 0.41823195151E+01 0.51062659445E+01 0.63989552913E+01 0.82348257201E+01 0.10865515156E+02
 0.14272133316E+02 0.18162774639E+02 0.31289550850E+02 0.35250240267E+02 0.37832389986E+02
 0.38729774972E+02 0.37832374972E+02 0.35250237824E+02 0.31289581651E+02 0.26403016234E+02
 0.21143978454E+02 0.16111607275E+02 0.11844080793E+02 0.86627470004E+01 0.65465192858E+01
 0.51440056532E+01 0.41823519144E+01 0.35958207779E+01 0.32935588288E+01 0.32018775178E+01
 0.32935703537E+01 0.35958334663E+01 0.41823489678E+01 0.51439835164E+01 0.65465049281E+01
 0.86627722304E+01 0.11844137429E+02 0.16111648607E+02 0.21143967705E+02 0.26402972752E+02
 0.42087998397E+02 0.46296178366E+02 0.48557541771E+02 0.48557753466E+02 0.46296400242E+02
 0.42087823568E+02 0.36455097471E+02 0.30014831938E+02 0.23425398744E+02 0.17356061109E+02
 0.12384178241E+02 0.88157113604E+01 0.65466227752E+01 0.51061199405E+01 0.41590686011E+01
 0.36168670728E+01 0.33778414659E+01 0.33776146415E+01 0.36166365542E+01 0.41592895175E+01
 0.51063463787E+01 0.65463963595E+01 0.88154730205E+01 0.12384395685E+02 0.17356306288E+02
 0.23425196483E+02 0.30014582620E+02 0.36455253062E+02 0.54067849191E+02 0.58241397733E+02
 0.59719044217E+02 0.58241399446E+02 0.54067856042E+02 0.47852185696E+02 0.40385021993E+02
 0.32419948714E+02 0.24662606332E+02 0.17796121554E+02 0.12384065641E+02 0.86626780915E+01
 0.63991517029E+01 0.49973193556E+01 0.41171598760E+01 0.36566930893E+01 0.35164044525E+01
 0.36566897175E+01 0.41171540972E+01 0.49973154443E+01 0.63991537257E+01 0.86626810782E+01
 0.12384058607E+02 0.17796099049E+02 0.24662574399E+02 0.32419919019E+02 0.40384999332E+02
 0.47852171260E+02 0.66732201192E+02 0.70383162700E+02 0.70382736781E+02 0.66731768528E+02
 0.60159533357E+02 0.51749171164E+02 0.42518553497E+02 0.33264649025E+02 0.24662597569E+02
 0.17356390766E+02 0.11843879994E+02 0.82346380535E+01 0.61274575106E+01 0.48314535765E+01
 0.40665492049E+01 0.37245874682E+01 0.37250352555E+01 0.40670000409E+01 0.48310048979E+01
 0.61269909717E+01 0.82350690902E+01 0.11844350314E+02 0.17355980778E+02 0.24662131920E+02
 0.33265024316E+02 0.42518964428E+02 0.51748762401E+02 0.60159126888E+02 0.79048571723E+02
 0.81358630510E+02 0.79048559764E+02 0.72666802246E+02 0.63545165164E+02 0.53132739198E+02
 0.42518731854E+02 0.32419533759E+02 0.23425297777E+02 0.16112101117E+02 0.10865529718E+02
 0.76138105290E+01 0.57651510652E+01 0.46305424228E+01 0.40222061112E+01 0.38344591351E+01
 0.40221988746E+01 0.46305289629E+01 0.57651413962E+01 0.76138150688E+01 0.10865543991E+02
 0.16112111432E+02 0.23425303396E+02 0.32419545071E+02 0.42518750925E+02 0.53132757728E+02
 0.63545178935E+02 0.72666816526E+02 0.89201955585E+02 0.89202532055E+02 0.83980510776E+02
 0.74813420963E+02 0.63544879626E+02 0.51749256078E+02 0.40385474375E+02 0.30014357946E+02
 0.21143688597E+02 0.14272436928E+02 0.96251311729E+01 0.69035179886E+01 0.53475817404E+01
 0.44219970395E+01 0.40017102606E+01 0.40010732480E+01 0.44213432814E+01 0.53481916053E+01
 0.69041704499E+01 0.96245451704E+01 0.14271800951E+02 0.21144270125E+02 0.30014993489E+02
 0.40384923491E+02 0.51748675113E+02 0.63545483011E+02 0.74814046319E+02 0.83979956088E+02
 0.95031009476E+02 0.92071133200E+02 0.83980719803E+02 0.72667189650E+02 0.60158880943E+02
 0.47852171534E+02 0.36455603859E+02 0.26402880777E+02 0.18162284650E+02 0.12133693069E+02
 0.83232968783E+01 0.61870447392E+01 0.49206933154E+01 0.42334935514E+01 0.40206348268E+01
 0.42334935514E+01 0.49206933154E+01 0.61870447392E+01 0.83232968783E+01 0.12133693069E+02
 0.18162284650E+02 0.26402880777E+02 0.36455603859E+02 0.47852171534E+02 0.60158880943E+02
 0.72667189650E+02 0.83980719803E+02 0.92071133200E+02 0.86488196739E+02 0.79048282751E+02
 0.68584765420E+02 0.56917715408E+02 0.45331764526E+02 0.34533453766E+02 0.24999601032E+02
 0.17216996844E+02 0.11563622192E+02 0.80136684383E+01 0.60126980711E+01 0.48062408282E+01
 0.41535024092E+01 0.39512120183E+01 0.41535150253E+01 0.48062534588E+01 0.60126966643E+01
 0.80136499252E+01 0.11563598184E+02 0.17216983967E+02 0.24999604691E+02 0.34533460057E+02
 0.45331745792E+02 0.56917651836E+02 0.68584661029E+02 0.79048171187E+02 0.86488124546E+02
 0.89202681999E+02 0.79048985242E+02 0.70382860531E+02 0.59719123656E+02 0.48557940298E+02
 0.37832600987E+02 0.28095802850E+02 0.19826308691E+02 0.13467589267E+02 0.91915174674E+01
 0.66828611489E+01 0.52168025434E+01 0.43427028949E+01 0.39469459373E+01 0.39463721891E+01
 0.43421251444E+01 0.52173730869E+01 0.66834442998E+01 0.91909420927E+01 0.13466969195E+02
 0.19826831771E+02 0.28096405716E+02 0.37832115175E+02 0.48557371550E+02 0.59719549466E+02
 0.70383234442E+02 0.79048286610E+02 0.83979929686E+02 0.83980537178E+02 0.68585107602E+02
 0.59719402240E+02 0.49680509948E+02 0.39571470102E+02 0.30090541797E+02 0.21761136926E+02