   1   1   0   0
  0.1561670E+02  0.2805658E-09  0.2805658E-09  0.2805658E-09  0.5000000E-15
  1.000000000000000E-004
  CAR 
 unknown system                          
     33.47449731      0.27711743  301      8.86732600      1.00000000
      0.277  0.0000E+00  0.0000E+00
      0.388  0.0000E+00  0.0000E+00
      0.498  0.0000E+00  0.0000E+00
      0.609 -0.3425E-32 -0.3790E-33
      0.720 -0.2399E-28 -0.2655E-29
      0.830 -0.9061E-25 -0.1003E-25
      0.941 -0.1845E-21 -0.2042E-22
      1.052 -0.2021E-18 -0.2239E-19
      1.162 -0.1153E-15 -0.1278E-16
      1.273 -0.3615E-13 -0.4013E-14
      1.384 -0.6045E-11 -0.6729E-12
      1.494 -0.5356E-09 -0.5995E-10
      1.605 -0.2489E-07 -0.2814E-08
      1.716 -0.5945E-06 -0.6860E-07
      1.826 -0.6997E-05 -0.8429E-06
      1.937 -0.3601E-04 -0.4827E-05
      2.048 -0.3859E-04 -0.9098E-05
      2.158  0.2605E-03  0.1973E-04
      2.269  0.8116E-03  0.1095E-03
      2.380  0.8220E-03  0.2005E-03
      2.490  0.9281E-03  0.3032E-03
      2.601  0.2328E-02  0.5608E-03
      2.712  0.2881E-02  0.8796E-03
      2.822  0.2016E-02  0.1103E-02
      2.933  0.2417E-02  0.1370E-02
      3.044  0.2771E-02  0.1677E-02
      3.154  0.2494E-02  0.1953E-02
      3.265  0.3422E-02  0.2331E-02
      3.376  0.3799E-02  0.2752E-02
      3.486  0.4690E-02  0.3271E-02
      3.597  0.6784E-02  0.4022E-02
      3.708  0.5726E-02  0.4655E-02
      3.818  0.2667E-02  0.4950E-02
      3.929  0.5342E-02  0.5541E-02
      4.039  0.1688E-01  0.7409E-02
      4.150  0.3091E-01  0.1083E-01
      4.261  0.4460E-01  0.1576E-01
      4.371  0.5347E-01  0.2168E-01
      4.482  0.6081E-01  0.2841E-01
      4.593  0.7948E-01  0.3721E-01
      4.703  0.8862E-01  0.4701E-01
      4.814  0.7635E-01  0.5546E-01
      4.925  0.6933E-01  0.6313E-01
      5.035  0.6853E-01  0.7072E-01
      5.146  0.6201E-01  0.7758E-01
      5.257  0.4973E-01  0.8308E-01
      5.367  0.4626E-01  0.8820E-01
      5.478  0.5963E-01  0.9480E-01
      5.589  0.6456E-01  0.1019E+00
      5.699  0.5610E-01  0.1082E+00
      5.810  0.5462E-01  0.1142E+00
      5.921  0.5834E-01  0.1207E+00
      6.031  0.6217E-01  0.1275E+00
      6.142  0.6787E-01  0.1350E+00
      6.253  0.7572E-01  0.1434E+00
      6.363  0.8273E-01  0.1526E+00
      6.474  0.9041E-01  0.1626E+00
      6.585  0.1011E+00  0.1738E+00
      6.695  0.1003E+00  0.1849E+00
      6.806  0.8229E-01  0.1940E+00
      6.917  0.6483E-01  0.2011E+00
      7.027  0.6304E-01  0.2081E+00
      7.138  0.6507E-01  0.2153E+00
      7.249  0.5449E-01  0.2214E+00
      7.359  0.4754E-01  0.2266E+00
      7.470  0.6277E-01  0.2336E+00
      7.581  0.8417E-01  0.2429E+00
      7.691  0.8358E-01  0.2521E+00
      7.802  0.6437E-01  0.2592E+00
      7.913  0.5716E-01  0.2656E+00
      8.023  0.6728E-01  0.2730E+00
      8.134  0.6626E-01  0.2803E+00
      8.244  0.5256E-01  0.2862E+00
      8.355  0.5508E-01  0.2923E+00
      8.466  0.6771E-01  0.2998E+00
      8.576  0.6907E-01  0.3074E+00
      8.687  0.7768E-01  0.3160E+00
      8.798  0.9703E-01  0.3267E+00
      8.908  0.9026E-01  0.3367E+00
      9.019  0.6219E-01  0.3436E+00
      9.130  0.3968E-01  0.3480E+00
      9.240  0.2059E-01  0.3503E+00
      9.351  0.8462E-02  0.3512E+00
      9.462  0.5245E-02  0.3518E+00
      9.572  0.3528E-02  0.3522E+00
      9.683  0.1416E-02  0.3523E+00
      9.794  0.1751E-02  0.3525E+00
      9.904  0.6632E-02  0.3533E+00
     10.015  0.1421E-01  0.3548E+00
     10.126  0.1643E-01  0.3566E+00
     10.236  0.1253E-01  0.3580E+00
     10.347  0.8508E-02  0.3590E+00
     10.458  0.4528E-02  0.3595E+00
     10.568  0.2660E-02  0.3598E+00
     10.679  0.4333E-02  0.3603E+00
     10.790  0.8907E-02  0.3612E+00
     10.900  0.1333E-01  0.3627E+00
     11.011  0.1520E-01  0.3644E+00
     11.122  0.1252E-01  0.3658E+00
     11.232  0.6122E-02  0.3665E+00
     11.343  0.4025E-02  0.3669E+00
     11.454  0.6258E-02  0.3676E+00
     11.564  0.8336E-02  0.3685E+00
     11.675  0.9347E-02  0.3696E+00
     11.786  0.7701E-02  0.3704E+00
     11.896  0.7137E-02  0.3712E+00
     12.007  0.7600E-02  0.3720E+00
     12.118  0.6480E-02  0.3728E+00
     12.228  0.7417E-02  0.3736E+00
     12.339  0.1139E-01  0.3748E+00
     12.449  0.1591E-01  0.3766E+00
     12.560  0.1846E-01  0.3786E+00
     12.671  0.1357E-01  0.3801E+00
     12.781  0.3881E-02  0.3806E+00
     12.892 -0.6317E-03  0.3805E+00
     13.003  0.1494E-02  0.3807E+00
     13.113  0.5333E-02  0.3813E+00
     13.224  0.5985E-02  0.3819E+00
     13.335  0.6197E-02  0.3826E+00
     13.445  0.1000E-01  0.3837E+00
     13.556  0.1439E-01  0.3853E+00
     13.667  0.1406E-01  0.3869E+00
     13.777  0.9178E-02  0.3879E+00
     13.888  0.4401E-02  0.3884E+00
     13.999  0.2865E-02  0.3887E+00
     14.109  0.3786E-02  0.3891E+00
     14.220  0.5769E-02  0.3897E+00
     14.331  0.8705E-02  0.3907E+00
     14.441  0.1005E-01  0.3918E+00
     14.552  0.7698E-02  0.3927E+00
     14.663  0.5081E-02  0.3932E+00
     14.773  0.5684E-02  0.3939E+00
     14.884  0.4906E-02  0.3944E+00
     14.995  0.2380E-02  0.3947E+00
     15.105  0.2208E-02  0.3949E+00
     15.216  0.2434E-02  0.3952E+00
     15.327  0.3991E-02  0.3956E+00
     15.437  0.8820E-02  0.3966E+00
     15.548  0.1013E-01  0.3977E+00
     15.659  0.5575E-02  0.3983E+00
     15.769  0.5017E-02  0.3989E+00
     15.880  0.1091E-01  0.4001E+00
     15.991  0.1365E-01  0.4016E+00
     16.101  0.1388E-01  0.4031E+00
     16.212  0.1575E-01  0.4049E+00
     16.323  0.1344E-01  0.4064E+00
     16.433  0.6621E-02  0.4071E+00
     16.544  0.5347E-02  0.4077E+00
     16.654  0.9899E-02  0.4088E+00
     16.765  0.1466E-01  0.4104E+00
     16.876  0.1830E-01  0.4124E+00
     16.986  0.1681E-01  0.4143E+00
     17.097  0.1048E-01  0.4155E+00
     17.208  0.3997E-02  0.4159E+00
     17.318  0.2660E-02  0.4162E+00
     17.429  0.5919E-02  0.4168E+00
     17.540  0.8243E-02  0.4178E+00
     17.650  0.1014E-01  0.4189E+00
     17.761  0.1231E-01  0.4202E+00
     17.872  0.1065E-01  0.4214E+00
     17.982  0.7568E-02  0.4223E+00
     18.093  0.1063E-01  0.4234E+00
     18.204  0.1482E-01  0.4251E+00
     18.314  0.1335E-01  0.4266E+00
     18.425  0.7707E-02  0.4274E+00
     18.536  0.2140E-02  0.4276E+00
     18.646  0.2535E-02  0.4279E+00
     18.757  0.7457E-02  0.4287E+00
     18.868  0.1116E-01  0.4300E+00
     18.978  0.1138E-01  0.4312E+00
     19.089  0.9174E-02  0.4323E+00
     19.200  0.1067E-01  0.4334E+00
     19.310  0.1664E-01  0.4353E+00
     19.421  0.2101E-01  0.4376E+00
     19.532  0.2527E-01  0.4404E+00
     19.642  0.2494E-01  0.4432E+00
     19.753  0.1481E-01  0.4448E+00
     19.864  0.9566E-02  0.4459E+00
     19.974  0.1284E-01  0.4473E+00
     20.085  0.1330E-01  0.4487E+00
     20.196  0.1288E-01  0.4502E+00
     20.306  0.1492E-01  0.4518E+00
     20.417  0.1493E-01  0.4535E+00
     20.528  0.1580E-01  0.4552E+00
     20.638  0.1841E-01  0.4573E+00
     20.749  0.1674E-01  0.4591E+00
     20.859  0.1024E-01  0.4602E+00
     20.970  0.3238E-02  0.4606E+00
     21.081  0.3348E-02  0.4610E+00
     21.191  0.1463E-01  0.4626E+00
     21.302  0.3000E-01  0.4659E+00
     21.413  0.3410E-01  0.4697E+00
     21.523  0.2348E-01  0.4723E+00
     21.634  0.1226E-01  0.4736E+00
     21.745  0.9464E-02  0.4747E+00
     21.855  0.1435E-01  0.4763E+00
     21.966  0.2032E-01  0.4785E+00
     22.077  0.1807E-01  0.4805E+00
     22.187  0.1608E-01  0.4823E+00
     22.298  0.2271E-01  0.4848E+00
     22.409  0.2559E-01  0.4876E+00
     22.519  0.2149E-01  0.4900E+00
     22.630  0.1708E-01  0.4919E+00
     22.741  0.1458E-01  0.4935E+00
     22.851  0.1495E-01  0.4952E+00
     22.962  0.1599E-01  0.4970E+00
     23.073  0.1326E-01  0.4984E+00
     23.183  0.9894E-02  0.4995E+00
     23.294  0.8621E-02  0.5005E+00
     23.405  0.9817E-02  0.5016E+00
     23.515  0.1828E-01  0.5036E+00
     23.626  0.2628E-01  0.5065E+00
     23.737  0.2388E-01  0.5091E+00
     23.847  0.2160E-01  0.5115E+00
     23.958  0.2442E-01  0.5142E+00
     24.069  0.2168E-01  0.5166E+00
     24.179  0.1761E-01  0.5186E+00
     24.290  0.1803E-01  0.5206E+00
     24.401  0.1632E-01  0.5224E+00
     24.511  0.1191E-01  0.5237E+00
     24.622  0.9367E-02  0.5247E+00
     24.733  0.1799E-01  0.5267E+00
     24.843  0.3203E-01  0.5303E+00
     24.954  0.2999E-01  0.5336E+00
     25.064  0.1420E-01  0.5352E+00
     25.175  0.5640E-02  0.5358E+00
     25.286  0.8954E-02  0.5368E+00
     25.396  0.1807E-01  0.5388E+00
     25.507  0.2669E-01  0.5417E+00
     25.618  0.2829E-01  0.5448E+00
     25.728  0.2401E-01  0.5475E+00
     25.839  0.1739E-01  0.5494E+00
     25.950  0.1243E-01  0.5508E+00
     26.060  0.1892E-01  0.5529E+00
     26.171  0.2908E-01  0.5561E+00
     26.282  0.2474E-01  0.5589E+00
     26.392  0.1579E-01  0.5606E+00
     26.503  0.1403E-01  0.5622E+00
     26.614  0.1986E-01  0.5644E+00
     26.724  0.2608E-01  0.5672E+00
     26.835  0.2026E-01  0.5695E+00
     26.946  0.1290E-01  0.5709E+00
     27.056  0.1337E-01  0.5724E+00
     27.167  0.1363E-01  0.5739E+00
     27.278  0.9942E-02  0.5750E+00
     27.388  0.1036E-01  0.5761E+00
     27.499  0.1603E-01  0.5779E+00
     27.610  0.1602E-01  0.5797E+00
     27.720  0.1082E-01  0.5809E+00
     27.831  0.7397E-02  0.5817E+00
     27.942  0.5714E-02  0.5823E+00
     28.052  0.4044E-02  0.5828E+00
     28.163  0.2919E-02  0.5831E+00
     28.274  0.4392E-02  0.5836E+00
     28.384  0.9761E-02  0.5847E+00
     28.495  0.1592E-01  0.5864E+00
     28.606  0.1597E-01  0.5882E+00
     28.716  0.1248E-01  0.5896E+00
     28.827  0.1063E-01  0.5908E+00
     28.938  0.6939E-02  0.5915E+00
     29.048  0.3435E-02  0.5919E+00
     29.159  0.3236E-02  0.5923E+00
     29.269  0.3739E-02  0.5927E+00
     29.380  0.3186E-02  0.5930E+00
     29.491  0.3137E-02  0.5934E+00
     29.601  0.5973E-02  0.5940E+00
     29.712  0.7252E-02  0.5948E+00
     29.823  0.4187E-02  0.5953E+00
     29.933  0.4339E-02  0.5958E+00
     30.044  0.9313E-02  0.5968E+00
     30.155  0.1182E-01  0.5981E+00
     30.265  0.8123E-02  0.5990E+00
     30.376  0.2360E-02  0.5993E+00
     30.487  0.8707E-04  0.5993E+00
     30.597  0.6284E-03  0.5994E+00
     30.708  0.8294E-03  0.5995E+00
     30.819  0.2586E-03  0.5995E+00
     30.929 -0.8974E-04  0.5995E+00
     31.040  0.1625E-04  0.5995E+00
     31.151  0.5517E-03  0.5995E+00
     31.261  0.1034E-02  0.5997E+00
     31.372  0.1045E-02  0.5998E+00
     31.483  0.1073E-02  0.5999E+00
     31.593  0.8477E-03  0.6000E+00
     31.704  0.2534E-03  0.6000E+00
     31.815 -0.4056E-04  0.6000E+00
     31.925 -0.3617E-04  0.6000E+00
     32.036 -0.7003E-05  0.6000E+00
     32.147 -0.5946E-06  0.6000E+00
     32.257 -0.2489E-07  0.6000E+00
     32.368 -0.5356E-09  0.6000E+00
     32.479 -0.6045E-11  0.6000E+00
     32.589 -0.3615E-13  0.6000E+00
     32.700 -0.1155E-15  0.6000E+00
     32.811  0.0000E+00  0.6000E+00
     32.921  0.0000E+00  0.6000E+00
     33.032  0.0000E+00  0.6000E+00
     33.143  0.0000E+00  0.6000E+00
     33.253  0.0000E+00  0.6000E+00
     33.364  0.0000E+00  0.6000E+00
     33.474  0.0000E+00  0.6000E+00
