    1    1   30    1
  0.1561670E+02  0.2805658E-09  0.2805658E-09  0.2805658E-09  0.5000000E-15
  1.000000000000000E-004
  CAR 
 unknown system                          
     10     60      9
 
  0.6250000E-01  0.6250000E-01  0.6250000E-01  0.3906250E-02
    1        2.277117
    2        6.224315
    3        6.314646
    4        6.314646
    5        7.718871
    6        7.718871
    7       26.127397
    8       29.519239
    9       30.591106
 
  0.1875000E+00  0.6250000E-01  0.6250000E-01  0.1171875E-01
    1        2.951183
    2        6.010228
    3        6.509855
    4        6.533290
    5        7.518853
    6        7.826712
    7       26.242031
    8       27.222749
    9       30.130286
 
  0.3125000E+00  0.6250000E-01  0.6250000E-01  0.1171875E-01
    1        4.012922
    2        6.222858
    3        6.550845
    4        6.584455
    5        7.738538
    6        8.335900
    7       22.213049
    8       26.652974
    9       29.997921
 
  0.4375000E+00  0.6250000E-01  0.6250000E-01  0.1171875E-01
    1        4.141082
    2        6.264441
    3        6.371058
    4        7.839990
    5        8.448408
    6        9.510145
    7       17.765573
    8       25.710004
    9       28.782050
 
 -0.4375000E+00  0.6250000E-01  0.6250000E-01  0.1171875E-01
    1        4.081841
    2        6.164086
    3        6.312976
    4        8.258487
    5        8.838525
    6       10.556378
    7       15.834240
    8       25.414353
    9       28.868996
 
 -0.3125000E+00  0.6250000E-01  0.6250000E-01  0.1171875E-01
    1        4.161963
    2        6.313881
    3        6.469076
    4        7.212723
    5        8.566150
    6        8.768295
    7       19.158338
    8       26.078992
    9       29.308789
 
 -0.1875000E+00  0.6250000E-01  0.6250000E-01  0.1171875E-01
    1        3.721012
    2        5.982197
    3        6.578110
    4        6.628552
    5        7.677541
    6        8.011471
    7       23.739552
    8       27.066805
    9       30.112324
 
 -0.6250000E-01  0.6250000E-01  0.6250000E-01  0.1171875E-01
    1        2.626333
    2        6.063514
    3        6.453815
    4        6.459334
    5        7.545554
    6        7.804740
    7       26.402377
    8       28.359614
    9       30.198666
 
  0.1875000E+00  0.1875000E+00  0.6250000E-01  0.1171875E-01
    1        3.270682
    2        5.754170
    3        6.713718
    4        6.738768
    5        7.314458
    6        7.964846
    7       26.637998
    8       27.462871
    9       29.109093
 
  0.3125000E+00  0.1875000E+00  0.6250000E-01  0.2343750E-01
    1        4.250859
    2        5.481324
    3        6.531122
    4        7.084528
    5        7.662541
    6        8.451835
    7       24.169934
    8       26.089292
    9       28.516777
 
  0.4375000E+00  0.1875000E+00  0.6250000E-01  0.2343750E-01
    1        4.595694
    2        5.970932
    3        6.299492
    4        6.954826
    5        8.537559
    6       10.027762
    7       19.497835
    8       25.461981
    9       26.698660
 
 -0.4375000E+00  0.1875000E+00  0.6250000E-01  0.2343750E-01
    1        4.536803
    2        5.814456
    3        6.743965
    4        7.085572
    5        8.776835
    6       12.394587
    7       15.884979
    8       24.875408
    9       26.167703
 
 -0.3125000E+00  0.1875000E+00  0.6250000E-01  0.2343750E-01
    1        4.645127
    2        5.947757
    3        6.631936
    4        6.890062
    5        8.345975
    6       11.000620
    7       18.121057
    8       24.415938
    9       26.965075
 
 -0.1875000E+00  0.1875000E+00  0.6250000E-01  0.2343750E-01
    1        4.597656
    2        5.667239
    3        6.351390
    4        7.043436
    5        7.516988
    6        9.123848
    7       22.640418
    8       24.749804
    9       28.724349
 
 -0.6250000E-01  0.1875000E+00  0.6250000E-01  0.2343750E-01
    1        3.546585
    2        5.793426
    3        6.625468
    4        6.737321
    5        7.406376
    6        8.065685
    7       25.342217
    8       26.745021
    9       29.645171
 
  0.3125000E+00  0.3125000E+00  0.6250000E-01  0.1171875E-01
    1        4.470998
    2        4.984153
    3        7.139377
    4        7.619091
    5        8.181923
    6        8.422626
    7       24.509679
    8       25.596453
    9       26.157907
 
  0.4375000E+00  0.3125000E+00  0.6250000E-01  0.2343750E-01
    1        4.592549
    2        4.844620
    3        7.049336
    4        8.002855
    5        8.606106
    6       10.290218
    7       21.671273
    8       23.569502
    9       23.911090
 
 -0.4375000E+00  0.3125000E+00  0.6250000E-01  0.2343750E-01
    1        4.691151
    2        5.240801
    3        6.693910
    4        7.668995
    5        8.847260
    6       13.531625
    7       17.398732
    8       21.826426
    9       23.962078
 
 -0.3125000E+00  0.3125000E+00  0.6250000E-01  0.2343750E-01
    1        5.099060
    2        5.630130
    3        6.175990
    4        7.433740
    5        8.385234
    6       13.732077
    7       17.755672
    8       20.405498
    9       25.579618
 
 -0.1875000E+00  0.3125000E+00  0.6250000E-01  0.2343750E-01
    1        5.166972
    2        5.798874
    3        5.989406
    4        7.219702
    5        7.903365
    6       11.080876
    7       20.065688
    8       22.274690
    9       27.133204
 
 -0.6250000E-01  0.3125000E+00  0.6250000E-01  0.2343750E-01
    1        4.335090
    2        6.272363
    3        6.384884
    4        6.697740
    5        8.058721
    6        8.963302
    7       20.804912
    8       26.132775
    9       28.509490
 
  0.4375000E+00  0.4375000E+00  0.6250000E-01  0.1171875E-01
    1        4.162832
    2        4.395729
    3        8.460145
    4        8.520030
    5        8.892543
    6       10.927454
    7       21.196235
    8       21.978320
    9       22.694319
 
 -0.4375000E+00  0.4375000E+00  0.6250000E-01  0.2343750E-01
    1        4.214010
    2        4.472825
    3        7.998465
    4        8.493285
    5        9.044839
    6       13.359557
    7       19.241968
    8       20.253525
    9       21.931179
 
 -0.3125000E+00  0.4375000E+00  0.6250000E-01  0.2343750E-01
    1        4.619276
    2        5.109685
    3        6.897101
    4        7.914889
    5        8.801622
    6       15.403854
    7       16.864559
    8       19.633501
    9       23.568222
 
 -0.1875000E+00  0.4375000E+00  0.6250000E-01  0.2343750E-01
    1        4.872656
    2        5.604530
    3        6.608814
    4        7.102981
    5        8.621862
    6       13.562414
    7       16.095816
    8       22.795376
    9       25.694718
 
 -0.6250000E-01  0.4375000E+00  0.6250000E-01  0.2343750E-01
    1        4.273290
    2        6.071407
    3        6.483899
    4        7.552237
    5        8.712367
    6       10.807220
    7       16.638999
    8       25.480984
    9       27.623797
 
 -0.4375000E+00 -0.4375000E+00  0.6250000E-01  0.1171875E-01
    1        4.009626
    2        4.265232
    3        8.718425
    4        8.806564
    5        9.064143
    6       12.321375
    7       19.329178
    8       21.303221
    9       22.010152
 
 -0.3125000E+00 -0.4375000E+00  0.6250000E-01  0.2343750E-01
    1        4.366868
    2        4.599046
    3        7.605119
    4        8.377972
    5        8.865671
    6       11.895038
    7       20.548089
    8       21.468871
    9       22.521376
 
 -0.1875000E+00 -0.4375000E+00  0.6250000E-01  0.2343750E-01
    1        4.716235
    2        5.541990
    3        6.444590
    4        7.307028
    5        8.794021
    6       11.614530
    7       18.325845
    8       24.281672
    9       24.745852
 
 -0.3125000E+00 -0.3125000E+00  0.6250000E-01  0.1171875E-01
    1        4.393756
    2        4.644742
    3        7.844382
    4        8.117071
    5        8.665514
    6        9.347173
    7       23.089212
    8       23.785810
    9       23.947536
 
 -0.1875000E+00 -0.3125000E+00  0.6250000E-01  0.2343750E-01
    1        4.672251
    2        5.155630
    3        6.574752
    4        7.523510
    5        8.198216
    6        9.100199
    7       22.923266
    8       24.896676
    9       26.390729
 
 -0.1875000E+00 -0.1875000E+00  0.6250000E-01  0.1171875E-01
    1        4.031320
    2        5.371846
    3        6.834198
    4        7.137506
    5        7.484409
    6        8.179757
    7       25.817974
    8       27.425753
    9       27.459303
 
  0.1875000E+00  0.1875000E+00  0.1875000E+00  0.3906250E-02
    1        3.228763
    2        6.052174
    3        6.533633
    4        6.533633
    5        7.706632
    6        7.706632
    7       25.088915
    8       27.141869
    9       31.474497
 
  0.3125000E+00  0.1875000E+00  0.1875000E+00  0.1171875E-01
    1        4.036589
    2        5.781975
    3        6.565339
    4        6.825108
    5        7.327422
    6        8.481428
    7       23.945164
    8       25.822854
    9       29.966471
 
  0.4375000E+00  0.1875000E+00  0.1875000E+00  0.1171875E-01
    1        4.923209
    2        5.807485
    3        6.278016
    4        6.990336
    5        7.554548
    6        9.985283
    7       21.280869
    8       23.457822
    9       28.436937
 
 -0.4375000E+00  0.1875000E+00  0.1875000E+00  0.1171875E-01
    1        4.732497
    2        5.818342
    3        6.841461
    4        6.842144
    5        8.408837
    6       12.170477
    7       16.968093
    8       23.479431
    9       27.446327
 
 -0.3125000E+00  0.1875000E+00  0.1875000E+00  0.1171875E-01
    1        4.589955
    2        5.755853
    3        6.751033
    4        6.925115
    5        8.881165
    6       12.020477
    7       16.796064
    8       24.498658
    9       26.636648
 
 -0.1875000E+00  0.1875000E+00  0.1875000E+00  0.1171875E-01
    1        4.599803
    2        5.534424
    3        6.429541
    4        7.133109
    5        8.665301
    6        9.262928
    7       21.113430
    8       26.110468
    9       26.446300
 
  0.3125000E+00  0.3125000E+00  0.1875000E+00  0.1171875E-01
    1        4.270494
    2        5.806603
    3        6.441605
    4        6.827683
    5        8.185656
    6        8.354760
    7       22.416517
    8       26.905608
    9       28.250544
 
  0.4375000E+00  0.3125000E+00  0.1875000E+00  0.2343750E-01
    1        4.963266
    2        5.512141
    3        6.089755
    4        7.417688
    5        7.985527
    6       10.046675
    7       21.403559
    8       23.583102
    9       26.649106
 
 -0.4375000E+00  0.3125000E+00  0.1875000E+00  0.2343750E-01
    1        5.321318
    2        5.501027
    3        5.884215
    4        7.542166
    5        8.349833
    6       12.524900
    7       18.984469
    8       21.302705
    9       24.790231
 
 -0.3125000E+00  0.3125000E+00  0.1875000E+00  0.2343750E-01
    1        5.052781
    2        5.395609
    3        6.293745
    4        7.448168
    5        8.742924
    6       14.477422
    7       16.269762
    8       22.330036
    9       23.212669
 
 -0.1875000E+00  0.3125000E+00  0.1875000E+00  0.2343750E-01
    1        4.928408
    2        5.227721
    3        6.294012
    4        7.827771
    5        8.432510
    6       11.389956
    7       20.262045
    8       22.467432
    9       24.220618
 
  0.4375000E+00  0.4375000E+00  0.1875000E+00  0.1171875E-01
    1        4.594545
    2        5.163493
    3        6.819940
    4        7.517574
    5        8.878709
    6       10.773084
    7       19.883122
    8       24.017029
    9       24.942410
 
 -0.4375000E+00  0.4375000E+00  0.1875000E+00  0.2343750E-01
    1        4.726190
    2        4.979359
    3        6.710638
    4        8.066990
    5        8.794259
    6       13.102574
    7       19.329049
    8       21.369392
    9       21.965709
 
 -0.3125000E+00  0.4375000E+00  0.1875000E+00  0.2343750E-01
    1        4.910173
    2        5.418915
    3        6.154365
    4        7.721988
    5        9.035787
    6       16.228445
    7       17.590281
    8       19.537442
    9       20.699651
 
 -0.1875000E+00  0.4375000E+00  0.1875000E+00  0.2343750E-01
    1        5.103425
    2        5.427342
    3        6.004499
    4        7.708110
    5        8.763663
    6       14.325294
    7       18.106365
    8       20.584442
    9       22.282103
 
 -0.4375000E+00 -0.4375000E+00  0.1875000E+00  0.1171875E-01
    1        4.338306
    2        4.721611
    3        7.609815
    4        8.239826
    5        8.901662
    6       14.180769
    7       18.275622
    8       19.566255
    9       23.308864
 
 -0.3125000E+00 -0.4375000E+00  0.1875000E+00  0.2343750E-01
    1        4.568423
    2        4.869761
    3        7.033962
    4        8.086864
    5        9.037686
    6       14.763004
    7       18.715444
    8       19.600359
    9       21.287340
 
 -0.3125000E+00 -0.3125000E+00  0.1875000E+00  0.1171875E-01
    1        4.452854
    2        4.867241
    3        7.300119
    4        7.923742
    5        8.950698
    6       12.558851
    7       18.876250
    8       21.549718
    9       23.868401
 
  0.3125000E+00  0.3125000E+00  0.3125000E+00  0.3906250E-02
    1        4.042008
    2        6.453962
    3        6.453962
    4        6.965463
    5        8.182487
    6        8.182487
    7       20.599032
    8       26.410034
    9       31.212804
 
  0.4375000E+00  0.3125000E+00  0.3125000E+00  0.1171875E-01
    1        4.459447
    2        6.186885
    3        6.629116
    4        6.792634
    5        8.018590
    6        9.826596
    7       19.378102
    8       25.252306
    9       28.019700
 
 -0.4375000E+00  0.3125000E+00  0.3125000E+00  0.1171875E-01
    1        5.164069
    2        5.780837
    3        6.177095
    4        7.191913
    5        8.057252
    6       12.270698
    7       18.865852
    8       21.175770
    9       27.854035
 
 -0.3125000E+00  0.3125000E+00  0.3125000E+00  0.1171875E-01
    1        4.791271
    2        5.449129
    3        6.579653
    4        7.641585
    5        8.543072
    6       15.103581
    7       16.559482
    8       19.877202
    9       25.564397
 
  0.4375000E+00  0.4375000E+00  0.3125000E+00  0.1171875E-01
    1        4.361844
    2        6.065785
    3        6.632514
    4        6.967311
    5        8.816306
    6       10.210274
    7       17.880415
    8       25.770904
    9       27.769663
 
 -0.4375000E+00  0.4375000E+00  0.3125000E+00  0.2343750E-01
    1        4.875278
    2        5.620908
    3        6.464729
    4        7.149897
    5        8.631998
    6       12.585413
    7       17.048521
    8       23.696787
    9       24.869810
 
 -0.3125000E+00  0.4375000E+00  0.3125000E+00  0.2343750E-01
    1        5.010897
    2        5.455825
    3        6.172147
    4        7.638049
    5        8.763552
    6       15.520861
    7       16.822252
    8       19.948019
    9       22.955463
 
 -0.4375000E+00 -0.4375000E+00  0.3125000E+00  0.1171875E-01
    1        4.752249
    2        5.523017
    3        6.628641
    4        7.299811
    5        8.758043
    6       14.002489
    7       16.048885
    8       22.178350
    9       25.911581
 
  0.4375000E+00  0.4375000E+00  0.4375000E+00  0.3906250E-02
    1        4.014125
    2        6.261781
    3        6.261781
    4        8.743816
    5        8.743816
    6        9.367338
    7       16.551944
    8       25.476200
    9       29.634395
 
 -0.4375000E+00  0.4375000E+00  0.4375000E+00  0.1171875E-01
    1        4.332386
    2        5.991753
    3        6.517021
    4        7.560254
    5        8.712710
    6       11.659994
    7       15.867323
    8       25.154093
    9       27.517170
