       N       E                     dE             d eps       ncg     rms          rms(c)
DAV:   1     0.272621351344E+02    0.27262E+02   -0.41451E+03  1104   0.728E+02
DAV:   2    -0.517467675094E+01   -0.32437E+02   -0.31376E+02  1147   0.157E+02
DAV:   3    -0.547246967359E+01   -0.29779E+00   -0.29463E+00  1276   0.169E+01
DAV:   4    -0.547389585443E+01   -0.14262E-02   -0.14261E-02  1261   0.116E+00
DAV:   5    -0.547390961635E+01   -0.13762E-04   -0.13762E-04  1251   0.100E-01    0.658E+00
DAV:   6    -0.522381583651E+01    0.25009E+00   -0.12865E+00  1096   0.104E+01    0.322E+00
DAV:   7    -0.521671058637E+01    0.71053E-02   -0.26970E-03  1189   0.490E-01    0.178E+00
DAV:   8    -0.521370302907E+01    0.30076E-02   -0.89045E-04  1132   0.213E-01    0.319E-02
DAV:   9    -0.521370846849E+01   -0.54394E-05   -0.54586E-06   588   0.232E-02
   1 F= -.52137085E+01 E0= -.52117771E+01  d E =-.521371E+01
