 vasp.5.3.5 31Mar14 (build Jan 09 2015 16:57:47) complex                        
  
 executed on             LinuxIFC date 2015.03.24  14:25:57
 serial version


--------------------------------------------------------------------------------------------------------


 INCAR:
 POTCAR:    PAW_PBE Pd 04Jan2005                  
 POTCAR:    PAW_PBE Pd 04Jan2005                  
   VRHFIN =Pd : s1 d9                                                           
   LEXCH  = PE                                                                  
   EATOM  =   809.7530 eV,   59.5152 Ry                                         
                                                                                
   TITEL  = PAW_PBE Pd 04Jan2005                                                
   LULTRA =        F    use ultrasoft PP ?                                      
   IUNSCR =        1    unscreen: 0-lin 1-nonlin 2-no                           
   RPACOR =    2.000    partial core radius                                     
   POMASS =  106.420; ZVAL   =   10.000    mass and valenz                      
   RCORE  =    2.600    outmost cutoff radius                                   
   RWIGS  =    2.710; RWIGS  =    1.434    wigner-seitz radius (au A)           
   ENMAX  =  250.925; ENMIN  =  188.194 eV                                      
   ICORE  =        3    local potential                                         
   LCOR   =        T    correct aug charges                                     
   LPAW   =        T    paw PP                                                  
   EAUG   =  416.230                                                            
   DEXC   =    0.000                                                            
   RMAX   =    2.653    core radius for proj-oper                               
   RAUG   =    1.300    factor for augmentation sphere                          
   RDEP   =    2.734    radius for radial grids                                 
   RDEPT  =    2.103    core radius for aug-charge                              
                                                                                
   Atomic configuration                                                         
   12 entries                                                                   
     n  l   j            E        occ.                                          
     1  0  0.50    -24164.6631   2.0000                                         
     2  0  0.50     -3530.9218   2.0000                                         
     2  1  1.50     -3165.6822   6.0000                                         
     3  0  0.50      -639.4577   2.0000                                         
     3  1  1.50      -519.4532   6.0000                                         
     3  2  2.50      -328.9757  10.0000                                         
     4  0  0.50       -88.7014   2.0000                                         
     4  1  1.50       -54.4540   6.0000                                         
     4  2  2.50        -6.6878   9.0000                                         
     5  0  0.50        -4.3543   1.0000                                         
     5  1  0.50        -1.3606   0.0000                                         
     4  3  2.50        -1.3606   0.0000                                         
   Description                                                                  
     l       E           TYP  RCUT    TYP  RCUT                                 
     2     -6.6878251     23  2.400                                             
     2     -8.0484077     23  2.400                                             
     0     -4.3542939     23  2.400                                             
     0      4.3406793     23  2.400                                             
     1     -4.0817478     23  2.600                                             
     1     15.8380318     23  2.600                                             
     3     -4.0817478     23  2.400                                             
  local pseudopotential read in
  partial core-charges read in
  partial kinetic energy density read in
  atomic valenz-charges read in
  non local Contribution for L=           2  read in
    real space projection operators read in
  non local Contribution for L=           2  read in
    real space projection operators read in
  non local Contribution for L=           0  read in
    real space projection operators read in
  non local Contribution for L=           0  read in
    real space projection operators read in
  non local Contribution for L=           1  read in
    real space projection operators read in
  non local Contribution for L=           1  read in
    real space projection operators read in
    PAW grid and wavefunctions read in
 
   number of l-projection  operators is LMAX  =           6
   number of lm-projection operators is LMMAX =          18
 
  PAW_PBE Pd 04Jan2005                  :
 energy of atom  1       EATOM= -809.7530
 kinetic energy error for atom=    0.0269 (will be added to EATOM!!)
 
 
 POSCAR: Pd                                      
  positions in cartesian coordinates
  No initial velocities read in
 exchange correlation table for  LEXCH =        8
   RHO(1)=    0.500       N(1)  =     2000
   RHO(2)=  100.500       N(2)  =     4000

 VTST: version 3.1, (03/28/14)

 CHAIN: initializing optimizer
 
 OPT: Using VASP Conjugate-Gradient optimizer
 CHAIN: Read ICHAIN            0
 
 POSCAR: Pd                                      
  positions in cartesian coordinates
  No initial velocities read in
 


--------------------------------------------------------------------------------------------------------


 ion  position               nearest neighbor table
   1  0.000  0.000  0.000-
 
  LATTYP: Found a face centered cubic cell.
 ALAT       =     3.9678000000
  
  Lattice vectors:
  
 A1 = (   2.8056582864,   0.0000000000,   0.0000000000)
 A2 = (   1.4028291432,   2.4297713504,   0.0000000000)
 A3 = (   1.4028291432,   0.8099237835,   2.2908103981)


Analysis of symmetry for initial positions (statically):
=====================================================================
 Subroutine PRICEL returns:
 Original cell was already a primitive cell.
 

 Routine SETGRP: Setting up the symmetry group for a 
 face centered cubic supercell.


 Subroutine GETGRP returns: Found 48 space group operations
 (whereof 48 operations were pure point group operations)
 out of a pool of 48 trial point group operations.


The static configuration has the point symmetry O_h .


Analysis of symmetry for dynamics (positions and initial velocities):
=====================================================================
 Subroutine PRICEL returns:
 Original cell was already a primitive cell.
 

 Routine SETGRP: Setting up the symmetry group for a 
 face centered cubic supercell.


 Subroutine GETGRP returns: Found 48 space group operations
 (whereof 48 operations were pure point group operations)
 out of a pool of 48 trial point group operations.


The dynamic configuration has the point symmetry O_h .
 
 
 KPOINTS: KPOINTS created by Atomic Simulation Env

Automatic generation of k-mesh.
Space group operators:
 irot       det(A)        alpha          n_x          n_y          n_z        tau_x        tau_y        tau_z
    1     1.000000     0.000000     1.000000     0.000000     0.000000     0.000000     0.000000     0.000000
    2    -1.000000     0.000000     1.000000     0.000000     0.000000     0.000000     0.000000     0.000000
    3     1.000000   120.000000    -0.816497    -0.471405    -0.333333     0.000000     0.000000     0.000000
    4    -1.000000   120.000000    -0.816497    -0.471405    -0.333333     0.000000     0.000000     0.000000
    5     1.000000   120.000000     0.816497     0.471405     0.333333     0.000000     0.000000     0.000000
    6    -1.000000   120.000000     0.816497     0.471405     0.333333     0.000000     0.000000     0.000000
    7     1.000000    90.000000    -0.707107    -0.408248     0.577350     0.000000     0.000000     0.000000
    8    -1.000000    90.000000    -0.707107    -0.408248     0.577350     0.000000     0.000000     0.000000
    9     1.000000   180.000000     1.000000     0.000000     0.000000     0.000000     0.000000     0.000000
   10    -1.000000   180.000000     1.000000     0.000000     0.000000     0.000000     0.000000     0.000000
   11     1.000000    90.000000     0.707107    -0.408248     0.577350     0.000000     0.000000     0.000000
   12    -1.000000    90.000000     0.707107    -0.408248     0.577350     0.000000     0.000000     0.000000
   13     1.000000   180.000000     0.707107     0.408248    -0.577350     0.000000     0.000000     0.000000
   14    -1.000000   180.000000     0.707107     0.408248    -0.577350     0.000000     0.000000     0.000000
   15     1.000000   120.000000     0.816497    -0.471405    -0.333333     0.000000     0.000000     0.000000
   16    -1.000000   120.000000     0.816497    -0.471405    -0.333333     0.000000     0.000000     0.000000
   17     1.000000   120.000000     0.000000    -0.942809     0.333333     0.000000     0.000000     0.000000
   18    -1.000000   120.000000     0.000000    -0.942809     0.333333     0.000000     0.000000     0.000000
   19     1.000000    90.000000     0.707107     0.408248    -0.577350     0.000000     0.000000     0.000000
   20    -1.000000    90.000000     0.707107     0.408248    -0.577350     0.000000     0.000000     0.000000
   21     1.000000    90.000000     0.000000    -0.816497    -0.577350     0.000000     0.000000     0.000000
   22    -1.000000    90.000000     0.000000    -0.816497    -0.577350     0.000000     0.000000     0.000000
   23     1.000000   180.000000     0.500000     0.866025     0.000000     0.000000     0.000000     0.000000
   24    -1.000000   180.000000     0.500000     0.866025     0.000000     0.000000     0.000000     0.000000
   25     1.000000   120.000000     0.000000     0.942809    -0.333333     0.000000     0.000000     0.000000
   26    -1.000000   120.000000     0.000000     0.942809    -0.333333     0.000000     0.000000     0.000000
   27     1.000000   120.000000     0.000000     0.000000    -1.000000     0.000000     0.000000     0.000000
   28    -1.000000   120.000000     0.000000     0.000000    -1.000000     0.000000     0.000000     0.000000
   29     1.000000   180.000000     0.000000    -0.816497    -0.577350     0.000000     0.000000     0.000000
   30    -1.000000   180.000000     0.000000    -0.816497    -0.577350     0.000000     0.000000     0.000000
   31     1.000000    90.000000    -0.707107     0.408248    -0.577350     0.000000     0.000000     0.000000
   32    -1.000000    90.000000    -0.707107     0.408248    -0.577350     0.000000     0.000000     0.000000
   33     1.000000   180.000000     0.500000     0.288675     0.816497     0.000000     0.000000     0.000000
   34    -1.000000   180.000000     0.500000     0.288675     0.816497     0.000000     0.000000     0.000000
   35     1.000000    90.000000     0.000000     0.816497     0.577350     0.000000     0.000000     0.000000
   36    -1.000000    90.000000     0.000000     0.816497     0.577350     0.000000     0.000000     0.000000
   37     1.000000   120.000000    -0.816497     0.471405     0.333333     0.000000     0.000000     0.000000
   38    -1.000000   120.000000    -0.816497     0.471405     0.333333     0.000000     0.000000     0.000000
   39     1.000000   180.000000    -0.707107     0.408248    -0.577350     0.000000     0.000000     0.000000
   40    -1.000000   180.000000    -0.707107     0.408248    -0.577350     0.000000     0.000000     0.000000
   41     1.000000   120.000000     0.000000     0.000000     1.000000     0.000000     0.000000     0.000000
   42    -1.000000   120.000000     0.000000     0.000000     1.000000     0.000000     0.000000     0.000000
   43     1.000000   179.999999     0.000000    -0.577350     0.816497     0.000000     0.000000     0.000000
   44    -1.000000   179.999999     0.000000    -0.577350     0.816497     0.000000     0.000000     0.000000
   45     1.000000   180.000000     0.500000    -0.866025     0.000000     0.000000     0.000000     0.000000
   46    -1.000000   180.000000     0.500000    -0.866025     0.000000     0.000000     0.000000     0.000000
   47     1.000000   179.999999    -0.500000     0.288675     0.816497     0.000000     0.000000     0.000000
   48    -1.000000   179.999999    -0.500000     0.288675     0.816497     0.000000     0.000000     0.000000
 
 Subroutine IBZKPT returns following result:
 ===========================================
 
 Found     60 irreducible k-points:
 
 Following reciprocal coordinates:
            Coordinates               Weight
  0.062500  0.062500  0.062500     96.000000
  0.187500  0.062500  0.062500    288.000000
  0.312500  0.062500  0.062500    288.000000
  0.437500  0.062500  0.062500    288.000000
 -0.437500  0.062500  0.062500    288.000000
 -0.312500  0.062500  0.062500    288.000000
 -0.187500  0.062500  0.062500    288.000000
 -0.062500  0.062500  0.062500    288.000000
  0.187500  0.187500  0.062500    288.000000
  0.312500  0.187500  0.062500    576.000000
  0.437500  0.187500  0.062500    576.000000
 -0.437500  0.187500  0.062500    576.000000
 -0.312500  0.187500  0.062500    576.000000
 -0.187500  0.187500  0.062500    576.000000
 -0.062500  0.187500  0.062500    576.000000
  0.312500  0.312500  0.062500    288.000000
  0.437500  0.312500  0.062500    576.000000
 -0.437500  0.312500  0.062500    576.000000
 -0.312500  0.312500  0.062500    576.000000
 -0.187500  0.312500  0.062500    576.000000
 -0.062500  0.312500  0.062500    576.000000
  0.437500  0.437500  0.062500    288.000000
 -0.437500  0.437500  0.062500    576.000000
 -0.312500  0.437500  0.062500    576.000000
 -0.187500  0.437500  0.062500    576.000000
 -0.062500  0.437500  0.062500    576.000000
 -0.437500 -0.437500  0.062500    288.000000
 -0.312500 -0.437500  0.062500    576.000000
 -0.187500 -0.437500  0.062500    576.000000
 -0.312500 -0.312500  0.062500    288.000000
 -0.187500 -0.312500  0.062500    576.000000
 -0.187500 -0.187500  0.062500    288.000000
  0.187500  0.187500  0.187500     96.000000
  0.312500  0.187500  0.187500    288.000000
  0.437500  0.187500  0.187500    288.000000
 -0.437500  0.187500  0.187500    288.000000
 -0.312500  0.187500  0.187500    288.000000
 -0.187500  0.187500  0.187500    288.000000
  0.312500  0.312500  0.187500    288.000000
  0.437500  0.312500  0.187500    576.000000
 -0.437500  0.312500  0.187500    576.000000
 -0.312500  0.312500  0.187500    576.000000
 -0.187500  0.312500  0.187500    576.000000
  0.437500  0.437500  0.187500    288.000000
 -0.437500  0.437500  0.187500    576.000000
 -0.312500  0.437500  0.187500    576.000000
 -0.187500  0.437500  0.187500    576.000000
 -0.437500 -0.437500  0.187500    288.000000
 -0.312500 -0.437500  0.187500    576.000000
 -0.312500 -0.312500  0.187500    288.000000
  0.312500  0.312500  0.312500     96.000000
  0.437500  0.312500  0.312500    288.000000
 -0.437500  0.312500  0.312500    288.000000
 -0.312500  0.312500  0.312500    288.000000
  0.437500  0.437500  0.312500    288.000000
 -0.437500  0.437500  0.312500    576.000000
 -0.312500  0.437500  0.312500    576.000000
 -0.437500 -0.437500  0.312500    288.000000
  0.437500  0.437500  0.437500     96.000000
 -0.437500  0.437500  0.437500    288.000000
 
 Following cartesian coordinates:
            Coordinates               Weight
  0.022276  0.012861  0.009094     96.000000
  0.066829 -0.012861 -0.009094    288.000000
  0.111382 -0.038584 -0.027283    288.000000
  0.155935 -0.064306 -0.045472    288.000000
 -0.155935  0.115752  0.081849    288.000000
 -0.111382  0.090029  0.063660    288.000000
 -0.066829  0.064306  0.045472    288.000000
 -0.022276  0.038584  0.027283    288.000000
  0.066829  0.038584 -0.027283    288.000000
  0.111382  0.012861 -0.045472    576.000000
  0.155935 -0.012861 -0.063660    576.000000
 -0.155935  0.167197  0.063660    576.000000
 -0.111382  0.141474  0.045472    576.000000
 -0.066829  0.115752  0.027283    576.000000
 -0.022276  0.090029  0.009094    576.000000
  0.111382  0.064306 -0.063660    288.000000
  0.155935  0.038584 -0.081849    576.000000
 -0.155935  0.218642  0.045472    576.000000
 -0.111382  0.192919  0.027283    576.000000
 -0.066829  0.167197  0.009094    576.000000
 -0.022276  0.141474 -0.009094    576.000000
  0.155935  0.090029 -0.100037    288.000000
 -0.155935  0.270087  0.027283    576.000000
 -0.111382  0.244365  0.009094    576.000000
 -0.066829  0.218642 -0.009094    576.000000
 -0.022276  0.192919 -0.027283    576.000000
 -0.155935 -0.090029  0.154603    288.000000
 -0.111382 -0.115752  0.136415    576.000000
 -0.066829 -0.141474  0.118226    576.000000
 -0.111382 -0.064306  0.118226    288.000000
 -0.066829 -0.090029  0.100037    576.000000
 -0.066829 -0.038584  0.081849    288.000000
  0.066829  0.038584  0.027283     96.000000
  0.111382  0.012861  0.009094    288.000000
  0.155935 -0.012861 -0.009094    288.000000
 -0.155935  0.167197  0.118226    288.000000
 -0.111382  0.141474  0.100037    288.000000
 -0.066829  0.115752  0.081849    288.000000
  0.111382  0.064306 -0.009094    288.000000
  0.155935  0.038584 -0.027283    576.000000
 -0.155935  0.218642  0.100037    576.000000
 -0.111382  0.192919  0.081849    576.000000
 -0.066829  0.167197  0.063660    576.000000
  0.155935  0.090029 -0.045472    288.000000
 -0.155935  0.270087  0.081849    576.000000
 -0.111382  0.244365  0.063660    576.000000
 -0.066829  0.218642  0.045472    576.000000
 -0.155935 -0.090029  0.209169    288.000000
 -0.111382 -0.115752  0.190980    576.000000
 -0.111382 -0.064306  0.172792    288.000000
  0.111382  0.064306  0.045472     96.000000
  0.155935  0.038584  0.027283    288.000000
 -0.155935  0.218642  0.154603    288.000000
 -0.111382  0.192919  0.136415    288.000000
  0.155935  0.090029  0.009094    288.000000
 -0.155935  0.270087  0.136415    576.000000
 -0.111382  0.244365  0.118226    576.000000
 -0.155935 -0.090029  0.263735    288.000000
  0.155935  0.090029  0.063660     96.000000
 -0.155935  0.270087  0.190980    288.000000
 


--------------------------------------------------------------------------------------------------------




 Dimension of arrays:
   k-points           NKPTS =     60   k-points in BZ     NKDIM =     60   number of bands    NBANDS=      9
   number of dos      NEDOS =    301   number of ions     NIONS =      1
   non local maximal  LDIM  =      6   non local SUM 2l+1 LMDIM =     18
   total plane-waves  NPLWV =   2744
   max r-space proj   IRMAX =      1   max aug-charges    IRDMAX=   8722
   dimension x,y,z NGX =    14 NGY =   14 NGZ =   14
   dimension x,y,z NGXF=    28 NGYF=   28 NGZF=   28
   support grid    NGXF=    28 NGYF=   28 NGZF=   28
   ions per type =               1
 NGX,Y,Z   is equivalent  to a cutoff of   8.30,  8.30,  8.30 a.u.
 NGXF,Y,Z  is equivalent  to a cutoff of  16.59, 16.59, 16.59 a.u.


 I would recommend the setting:
   dimension x,y,z NGX =    13 NGY =   13 NGZ =   13
 SYSTEM =  unknown system                          
 POSCAR =  Pd                                      

 Startparameter for this run:
   NWRITE =      2    write-flag & timer
   PREC   = normal    normal or accurate (medium, high low for compatibility)
   ISTART =      0    job   : 0-new  1-cont  2-samecut
   ICHARG =      2    charge: 1-file 2-atom 10-const
   ISPIN  =      1    spin polarized calculation?
   LNONCOLLINEAR =      F non collinear calculations
   LSORBIT =      F    spin-orbit coupling
   INIWAV =      1    electr: 0-lowe 1-rand  2-diag
   LASPH  =      F    aspherical Exc in radial PAW
   METAGGA=      F    non-selfconsistent MetaGGA calc.

 Electronic Relaxation 1
   ENCUT  =  350.0 eV  25.72 Ry    5.07 a.u.   4.28  4.28  4.28*2*pi/ulx,y,z
   ENINI  =  350.0     initial cutoff
   ENAUG  =  416.2 eV  augmentation charge cutoff
   NELM   =     60;   NELMIN=  2; NELMDL= -5     # of ELM steps 
   EDIFF  = 0.1E-03   stopping-criterion for ELM
   LREAL  =      F    real-space projection
   NLSPLINE    = F    spline interpolate recip. space projectors
   LCOMPAT=      F    compatible to vasp.4.4
   GGA_COMPAT  = T    GGA compatible to vasp.4.4-vasp.4.6
   LMAXPAW     = -100 max onsite density
   LMAXMIX     =    2 max onsite mixed and CHGCAR
   VOSKOWN=      0    Vosko Wilk Nusair interpolation
   ROPT   =    0.00000
 Ionic relaxation
   EDIFFG = 0.1E-02   stopping-criterion for IOM
   NSW    =     30    number of steps for IOM
   NBLOCK =      1;   KBLOCK =     30    inner block; outer block 
   IBRION =      2    ionic relax: 0-MD 1-quasi-New 2-CG
   NFREE  =      1    steps in history (QN), initial steepest desc. (CG)
   ISIF   =      2    stress and relaxation
   IWAVPR =     11    prediction:  0-non 1-charg 2-wave 3-comb
   ISYM   =      2    0-nonsym 1-usesym 2-fastsym
   LCORR  =      T    Harris-Foulkes like correction to forces

   POTIM  = 0.5000    time-step for ionic-motion
   TEIN   =    0.0    initial temperature
   TEBEG  =    0.0;   TEEND  =   0.0 temperature during run
   SMASS  =  -3.00    Nose mass-parameter (am)
   estimated Nose-frequenzy (Omega)   =  0.10E-29 period in steps =****** mass=  -0.180E-27a.u.
   SCALEE = 1.0000    scale energy and forces
   NPACO  =    256;   APACO  = 16.0  distance and # of slots for P.C.
   PSTRESS=    0.0 pullay stress

  Mass of Ions in am
   POMASS = 106.42
  Ionic Valenz
   ZVAL   =  10.00
  Atomic Wigner-Seitz radii
   RWIGS  =  -1.00
  virtual crystal weights 
   VCA    =   1.00
   NELECT =      10.0000    total number of electrons
   NUPDOWN=      -1.0000    fix difference up-down

 DOS related values:
   EMIN   =  10.00;   EMAX   =-10.00  energy-range for DOS
   EFERMI =   0.00
   ISMEAR =     1;   SIGMA  =   0.20  broadening in eV -4-tet -1-fermi 0-gaus

 Electronic relaxation 2 (details)
   IALGO  =     38    algorithm
   LDIAG  =      T    sub-space diagonalisation (order eigenvalues)
   LSUBROT=      F    optimize rotation matrix (better conditioning)
   TURBO    =      0    0=normal 1=particle mesh
   IRESTART =      0    0=no restart 2=restart with 2 vectors
   NREBOOT  =      0    no. of reboots
   NMIN     =      0    reboot dimension
   EREF     =   0.00    reference energy to select bands
   IMIX   =      4    mixing-type and parameters
     AMIX     =   0.40;   BMIX     =  1.00
     AMIX_MAG =   1.60;   BMIX_MAG =  1.00
     AMIN     =   0.10
     WC   =   100.;   INIMIX=   1;  MIXPRE=   1;  MAXMIX= -45

 Intra band minimization:
   WEIMIN = 0.0010     energy-eigenvalue tresh-hold
   EBREAK =  0.28E-05  absolut break condition
   DEPER  =   0.30     relativ break condition  

   TIME   =   0.40     timestep for ELM

  volume/ion in A,a.u.               =      15.62       105.39
  Fermi-wavevector in a.u.,A,eV,Ry     =   1.411059  2.666514 27.090375  1.991086
  Thomas-Fermi vector in A             =   2.532949
 
 Write flags
   LWAVE  =      T    write WAVECAR
   LCHARG =      T    write CHGCAR
   LVTOT  =      F    write LOCPOT, total local potential
   LVHAR  =      F    write LOCPOT, Hartree potential only
   LELF   =      F    write electronic localiz. function (ELF)
   LORBIT =      0    0 simple, 1 ext, 2 COOP (PROOUT)


 Dipole corrections
   LMONO  =      F    monopole corrections only (constant potential shift)
   LDIPOL =      F    correct potential (dipole corrections)
   IDIPOL =      0    1-x, 2-y, 3-z, 4-all directions 
   EPSILON=  1.0000000 bulk dielectric constant

 Exchange correlation treatment:
   GGA     =    --    GGA type
   LEXCH   =     8    internal setting for exchange type
   VOSKOWN=      0    Vosko Wilk Nusair interpolation
   LHFCALC =     F    Hartree Fock is set to
   LHFONE  =     F    Hartree Fock one center treatment
   AEXX    =    0.0000 exact exchange contribution

 Linear response parameters
   LEPSILON=     F    determine dielectric tensor
   LRPA    =     F    only Hartree local field effects (RPA)
   LNABLA  =     F    use nabla operator in PAW spheres
   LVEL    =     F    velocity operator in full k-point grid
   LINTERFAST=   F  fast interpolation
   KINTER  =     0    interpolate to denser k-point grid
   CSHIFT  =0.1000    complex shift for real part using Kramers Kronig
   OMEGAMAX=  -1.0    maximum frequency
   DEG_THRESHOLD= 0.2000000E-02 threshold for treating states as degnerate
   RTIME   =    0.100 relaxation time in fs

 Orbital magnetization related:
   ORBITALMAG=     F  switch on orbital magnetization
   LCHIMAG   =     F  perturbation theory with respect to B field
   DQ        =  0.001000  dq finite difference perturbation B field



--------------------------------------------------------------------------------------------------------


 conjugate gradient relaxation of ions
 charge density and potential will be updated during run
 non-spin polarized calculation
 Variant of blocked Davidson
 Davidson routine will perform the subspace rotation
 perform sub-space diagonalisation
    after iterative eigenvector-optimisation
 modified Broyden-mixing scheme, WC =      100.0
 initial mixing is a Kerker type mixing with AMIX =  0.4000 and BMIX =      1.0000
 Hartree-type preconditioning will be used
 using additional bands            4
 reciprocal scheme for non local part
 use partial core corrections
 calculate Harris-corrections to forces 
   (improved forces if not selfconsistent)
 use gradient corrections 
 use of overlap-Matrix (Vanderbilt PP)
 Methfessel and Paxton  Order N= 1 SIGMA  =   0.20


--------------------------------------------------------------------------------------------------------


  energy-cutoff  :      350.00
  volume of cell :       15.62
      direct lattice vectors                 reciprocal lattice vectors
     2.805658286  0.000000000  0.000000000     0.356422592 -0.205780680 -0.145508914
     1.402829143  2.429771350  0.000000000     0.000000000  0.411561359 -0.145508914
     1.402829143  0.809923783  2.290810398     0.000000000  0.000000000  0.436526742

  length of vectors
     2.805658286  2.805658286  2.805658286     0.436526742  0.436526742  0.436526742


 
 k-points in units of 2pi/SCALE and weight: KPOINTS created by Atomic Simulation Env
   0.02227641  0.01286129  0.00909431       0.004
   0.06682924 -0.01286129 -0.00909431       0.012
   0.11138206 -0.03858388 -0.02728292       0.012
   0.15593488 -0.06430646 -0.04547154       0.012
  -0.15593488  0.11575163  0.08184876       0.012
  -0.11138206  0.09002905  0.06366015       0.012
  -0.06682924  0.06430646  0.04547154       0.012
  -0.02227641  0.03858388  0.02728292       0.012
   0.06682924  0.03858388 -0.02728292       0.012
   0.11138206  0.01286129 -0.04547154       0.023
   0.15593488 -0.01286129 -0.06366015       0.023
  -0.15593488  0.16719680  0.06366015       0.023
  -0.11138206  0.14147422  0.04547154       0.023
  -0.06682924  0.11575163  0.02728292       0.023
  -0.02227641  0.09002905  0.00909431       0.023
   0.11138206  0.06430646 -0.06366015       0.012
   0.15593488  0.03858388 -0.08184876       0.023
  -0.15593488  0.21864197  0.04547154       0.023
  -0.11138206  0.19291939  0.02728292       0.023
  -0.06682924  0.16719680  0.00909431       0.023
  -0.02227641  0.14147422 -0.00909431       0.023
   0.15593488  0.09002905 -0.10003738       0.012
  -0.15593488  0.27008714  0.02728292       0.023
  -0.11138206  0.24436456  0.00909431       0.023
  -0.06682924  0.21864197 -0.00909431       0.023
  -0.02227641  0.19291939 -0.02728292       0.023
  -0.15593488 -0.09002905  0.15460322       0.012
  -0.11138206 -0.11575163  0.13641461       0.023
  -0.06682924 -0.14147422  0.11822599       0.023
  -0.11138206 -0.06430646  0.11822599       0.012
  -0.06682924 -0.09002905  0.10003738       0.023
  -0.06682924 -0.03858388  0.08184876       0.012
   0.06682924  0.03858388  0.02728292       0.004
   0.11138206  0.01286129  0.00909431       0.012
   0.15593488 -0.01286129 -0.00909431       0.012
  -0.15593488  0.16719680  0.11822599       0.012
  -0.11138206  0.14147422  0.10003738       0.012
  -0.06682924  0.11575163  0.08184876       0.012
   0.11138206  0.06430646 -0.00909431       0.012
   0.15593488  0.03858388 -0.02728292       0.023
  -0.15593488  0.21864197  0.10003738       0.023
  -0.11138206  0.19291939  0.08184876       0.023
  -0.06682924  0.16719680  0.06366015       0.023
   0.15593488  0.09002905 -0.04547154       0.012
  -0.15593488  0.27008714  0.08184876       0.023
  -0.11138206  0.24436456  0.06366015       0.023
  -0.06682924  0.21864197  0.04547154       0.023
  -0.15593488 -0.09002905  0.20916906       0.012
  -0.11138206 -0.11575163  0.19098045       0.023
  -0.11138206 -0.06430646  0.17279184       0.012
   0.11138206  0.06430646  0.04547154       0.004
   0.15593488  0.03858388  0.02728292       0.012
  -0.15593488  0.21864197  0.15460322       0.012
  -0.11138206  0.19291939  0.13641461       0.012
   0.15593488  0.09002905  0.00909431       0.012
  -0.15593488  0.27008714  0.13641461       0.023
  -0.11138206  0.24436456  0.11822599       0.023
  -0.15593488 -0.09002905  0.26373491       0.012
   0.15593488  0.09002905  0.06366015       0.004
  -0.15593488  0.27008714  0.19098045       0.012
 
 k-points in reciprocal lattice and weights: KPOINTS created by Atomic Simulation Env
   0.06250000  0.06250000  0.06250000       0.004
   0.18750000  0.06250000  0.06250000       0.012
   0.31250000  0.06250000  0.06250000       0.012
   0.43750000  0.06250000  0.06250000       0.012
  -0.43750000  0.06250000  0.06250000       0.012
  -0.31250000  0.06250000  0.06250000       0.012
  -0.18750000  0.06250000  0.06250000       0.012
  -0.06250000  0.06250000  0.06250000       0.012
   0.18750000  0.18750000  0.06250000       0.012
   0.31250000  0.18750000  0.06250000       0.023
   0.43750000  0.18750000  0.06250000       0.023
  -0.43750000  0.18750000  0.06250000       0.023
  -0.31250000  0.18750000  0.06250000       0.023
  -0.18750000  0.18750000  0.06250000       0.023
  -0.06250000  0.18750000  0.06250000       0.023
   0.31250000  0.31250000  0.06250000       0.012
   0.43750000  0.31250000  0.06250000       0.023
  -0.43750000  0.31250000  0.06250000       0.023
  -0.31250000  0.31250000  0.06250000       0.023
  -0.18750000  0.31250000  0.06250000       0.023
  -0.06250000  0.31250000  0.06250000       0.023
   0.43750000  0.43750000  0.06250000       0.012
  -0.43750000  0.43750000  0.06250000       0.023
  -0.31250000  0.43750000  0.06250000       0.023
  -0.18750000  0.43750000  0.06250000       0.023
  -0.06250000  0.43750000  0.06250000       0.023
  -0.43750000 -0.43750000  0.06250000       0.012
  -0.31250000 -0.43750000  0.06250000       0.023
  -0.18750000 -0.43750000  0.06250000       0.023
  -0.31250000 -0.31250000  0.06250000       0.012
  -0.18750000 -0.31250000  0.06250000       0.023
  -0.18750000 -0.18750000  0.06250000       0.012
   0.18750000  0.18750000  0.18750000       0.004
   0.31250000  0.18750000  0.18750000       0.012
   0.43750000  0.18750000  0.18750000       0.012
  -0.43750000  0.18750000  0.18750000       0.012
  -0.31250000  0.18750000  0.18750000       0.012
  -0.18750000  0.18750000  0.18750000       0.012
   0.31250000  0.31250000  0.18750000       0.012
   0.43750000  0.31250000  0.18750000       0.023
  -0.43750000  0.31250000  0.18750000       0.023
  -0.31250000  0.31250000  0.18750000       0.023
  -0.18750000  0.31250000  0.18750000       0.023
   0.43750000  0.43750000  0.18750000       0.012
  -0.43750000  0.43750000  0.18750000       0.023
  -0.31250000  0.43750000  0.18750000       0.023
  -0.18750000  0.43750000  0.18750000       0.023
  -0.43750000 -0.43750000  0.18750000       0.012
  -0.31250000 -0.43750000  0.18750000       0.023
  -0.31250000 -0.31250000  0.18750000       0.012
   0.31250000  0.31250000  0.31250000       0.004
   0.43750000  0.31250000  0.31250000       0.012
  -0.43750000  0.31250000  0.31250000       0.012
  -0.31250000  0.31250000  0.31250000       0.012
   0.43750000  0.43750000  0.31250000       0.012
  -0.43750000  0.43750000  0.31250000       0.023
  -0.31250000  0.43750000  0.31250000       0.023
  -0.43750000 -0.43750000  0.31250000       0.012
   0.43750000  0.43750000  0.43750000       0.004
  -0.43750000  0.43750000  0.43750000       0.012
 
 position of ions in fractional coordinates (direct lattice) 
   0.00000000  0.00000000  0.00000000
 
 position of ions in cartesian coordinates  (Angst):
   0.00000000  0.00000000  0.00000000
 


--------------------------------------------------------------------------------------------------------


 k-point  1 :   0.0625 0.0625 0.0625  plane waves:     250
 k-point  2 :   0.1875 0.0625 0.0625  plane waves:     236
 k-point  3 :   0.3125 0.0625 0.0625  plane waves:     233
 k-point  4 :   0.4375 0.0625 0.0625  plane waves:     234
 k-point  5 :  -0.4375 0.0625 0.0625  plane waves:     235
 k-point  6 :  -0.3125 0.0625 0.0625  plane waves:     234
 k-point  7 :  -0.1875 0.0625 0.0625  plane waves:     232
 k-point  8 :  -0.0625 0.0625 0.0625  plane waves:     235
 k-point  9 :   0.1875 0.1875 0.0625  plane waves:     235
 k-point 10 :   0.3125 0.1875 0.0625  plane waves:     232
 k-point 11 :   0.4375 0.1875 0.0625  plane waves:     235
 k-point 12 :  -0.4375 0.1875 0.0625  plane waves:     235
 k-point 13 :  -0.3125 0.1875 0.0625  plane waves:     235
 k-point 14 :  -0.1875 0.1875 0.0625  plane waves:     229
 k-point 15 :  -0.0625 0.1875 0.0625  plane waves:     230
 k-point 16 :   0.3125 0.3125 0.0625  plane waves:     226
 k-point 17 :   0.4375 0.3125 0.0625  plane waves:     230
 k-point 18 :  -0.4375 0.3125 0.0625  plane waves:     230
 k-point 19 :  -0.3125 0.3125 0.0625  plane waves:     231
 k-point 20 :  -0.1875 0.3125 0.0625  plane waves:     233
 k-point 21 :  -0.0625 0.3125 0.0625  plane waves:     234
 k-point 22 :   0.4375 0.4375 0.0625  plane waves:     230
 k-point 23 :  -0.4375 0.4375 0.0625  plane waves:     231
 k-point 24 :  -0.3125 0.4375 0.0625  plane waves:     228
 k-point 25 :  -0.1875 0.4375 0.0625  plane waves:     235
 k-point 26 :  -0.0625 0.4375 0.0625  plane waves:     234
 k-point 27 :  -0.4375-0.4375 0.0625  plane waves:     226
 k-point 28 :  -0.3125-0.4375 0.0625  plane waves:     232
 k-point 29 :  -0.1875-0.4375 0.0625  plane waves:     233
 k-point 30 :  -0.3125-0.3125 0.0625  plane waves:     230
 k-point 31 :  -0.1875-0.3125 0.0625  plane waves:     230
 k-point 32 :  -0.1875-0.1875 0.0625  plane waves:     230
 k-point 33 :   0.1875 0.1875 0.1875  plane waves:     232
 k-point 34 :   0.3125 0.1875 0.1875  plane waves:     231
 k-point 35 :   0.4375 0.1875 0.1875  plane waves:     229
 k-point 36 :  -0.4375 0.1875 0.1875  plane waves:     238
 k-point 37 :  -0.3125 0.1875 0.1875  plane waves:     235
 k-point 38 :  -0.1875 0.1875 0.1875  plane waves:     230
 k-point 39 :   0.3125 0.3125 0.1875  plane waves:     230
 k-point 40 :   0.4375 0.3125 0.1875  plane waves:     231
 k-point 41 :  -0.4375 0.3125 0.1875  plane waves:     234
 k-point 42 :  -0.3125 0.3125 0.1875  plane waves:     233
 k-point 43 :  -0.1875 0.3125 0.1875  plane waves:     230
 k-point 44 :   0.4375 0.4375 0.1875  plane waves:     232
 k-point 45 :  -0.4375 0.4375 0.1875  plane waves:     230
 k-point 46 :  -0.3125 0.4375 0.1875  plane waves:     231
 k-point 47 :  -0.1875 0.4375 0.1875  plane waves:     234
 k-point 48 :  -0.4375-0.4375 0.1875  plane waves:     228
 k-point 49 :  -0.3125-0.4375 0.1875  plane waves:     231
 k-point 50 :  -0.3125-0.3125 0.1875  plane waves:     233
 k-point 51 :   0.3125 0.3125 0.3125  plane waves:     232
 k-point 52 :   0.4375 0.3125 0.3125  plane waves:     230
 k-point 53 :  -0.4375 0.3125 0.3125  plane waves:     232
 k-point 54 :  -0.3125 0.3125 0.3125  plane waves:     231
 k-point 55 :   0.4375 0.4375 0.3125  plane waves:     235
 k-point 56 :  -0.4375 0.4375 0.3125  plane waves:     235
 k-point 57 :  -0.3125 0.4375 0.3125  plane waves:     231
 k-point 58 :  -0.4375-0.4375 0.3125  plane waves:     234
 k-point 59 :   0.4375 0.4375 0.4375  plane waves:     235
 k-point 60 :  -0.4375 0.4375 0.4375  plane waves:     237

 maximum number of plane-waves:       250
 maximum index in each direction: 
   IXMAX=    4   IYMAX=    4   IZMAX=    4
   IXMIN=   -4   IYMIN=   -4   IZMIN=   -4

 WARNING: aliasing errors must be expected set NGX to  18 to avoid them
 WARNING: aliasing errors must be expected set NGY to  18 to avoid them
 WARNING: aliasing errors must be expected set NGZ to  18 to avoid them
 aliasing errors are usually negligible using standard VASP settings
 and one can safely disregard these warnings

 total amount of memory used by VASP on root node    35710. kBytes
========================================================================

   base      :      30000. kBytes
   nonl-proj :       2164. kBytes
   grid      :       1216. kBytes
   one-center:         15. kBytes
   wavefun   :       2315. kBytes
 
     INWAV:  cpu time    0.00: real time    0.00
 Broyden mixing: mesh for mixing (old mesh)
   NGX =  9   NGY =  9   NGZ =  9
  (NGX  = 28   NGY  = 28   NGZ  = 28)
  gives a total of    729 points

 initial charge density was supplied:
 charge density of overlapping atoms calculated
 number of electron      10.0000000 magnetization 
 keeping initial charge density in first step


--------------------------------------------------------------------------------------------------------


 Maximum index for augmentation-charges         8247 (set IRDMAX)


--------------------------------------------------------------------------------------------------------


 First call to EWALD:  gamma=   0.709
 Maximum number of real-space cells 3x 3x 3
 Maximum number of reciprocal cells 3x 3x 3

    FEWALD:  cpu time    0.00: real time    0.00


----------------------------------------- Iteration    1(   1)  ---------------------------------------


    POTLOK:  cpu time    0.02: real time    0.02
    SETDIJ:  cpu time    0.01: real time    0.01
     EDDAV:  cpu time    0.61: real time    0.61
       DOS:  cpu time    0.00: real time    0.00
    --------------------------------------------
      LOOP:  cpu time    0.64: real time    0.65

 eigenvalue-minimisations  :  1104
 total energy-change (2. order) : 0.2726214E+02  (-0.4145111E+03)
 number of electron      10.0000000 magnetization 
 augmentation part       10.0000000 magnetization 

 Free energy of the ion-electron system (eV)
  ---------------------------------------------------
  alpha Z        PSCENC =        41.73430746
  Ewald energy   TEWEN  =      -831.96025565
  -Hartree energ DENC   =      -129.33084488
  -exchange      EXHF   =         0.00000000
  -V(xc)+E(xc)   XCENC  =       -29.30372314
  PAW double counting   =       806.73831454     -744.51602449
  entropy T*S    EENTRO =        -0.00053607
  eigenvalues    EBANDS =       104.17476886
  atomic energy  EATOM  =       809.72612850
  ---------------------------------------------------
  free energy    TOTEN  =        27.26213513 eV

  energy without entropy =       27.26267120  energy(sigma->0) =       27.26231382


--------------------------------------------------------------------------------------------------------




----------------------------------------- Iteration    1(   2)  ---------------------------------------


     EDDAV:  cpu time    0.64: real time    0.66
       DOS:  cpu time    0.00: real time    0.00
    --------------------------------------------
      LOOP:  cpu time    0.65: real time    0.70

 eigenvalue-minimisations  :  1147
 total energy-change (2. order) :-0.3243681E+02  (-0.3137626E+02)
 number of electron      10.0000000 magnetization 
 augmentation part       10.0000000 magnetization 

 Free energy of the ion-electron system (eV)
  ---------------------------------------------------
  alpha Z        PSCENC =        41.73430746
  Ewald energy   TEWEN  =      -831.96025565
  -Hartree energ DENC   =      -129.33084488
  -exchange      EXHF   =         0.00000000
  -V(xc)+E(xc)   XCENC  =       -29.30372314
  PAW double counting   =       806.73831454     -744.51602449
  entropy T*S    EENTRO =        -0.00767639
  eigenvalues    EBANDS =        71.74509729
  atomic energy  EATOM  =       809.72612850
  ---------------------------------------------------
  free energy    TOTEN  =        -5.17467675 eV

  energy without entropy =       -5.16700036  energy(sigma->0) =       -5.17211796


--------------------------------------------------------------------------------------------------------




----------------------------------------- Iteration    1(   3)  ---------------------------------------


     EDDAV:  cpu time    0.72: real time    0.72
       DOS:  cpu time    0.00: real time    0.01
    --------------------------------------------
      LOOP:  cpu time    0.72: real time    0.73

 eigenvalue-minimisations  :  1276
 total energy-change (2. order) :-0.2977929E+00  (-0.2946275E+00)
 number of electron      10.0000000 magnetization 
 augmentation part       10.0000000 magnetization 

 Free energy of the ion-electron system (eV)
  ---------------------------------------------------
  alpha Z        PSCENC =        41.73430746
  Ewald energy   TEWEN  =      -831.96025565
  -Hartree energ DENC   =      -129.33084488
  -exchange      EXHF   =         0.00000000
  -V(xc)+E(xc)   XCENC  =       -29.30372314
  PAW double counting   =       806.73831454     -744.51602449
  entropy T*S    EENTRO =        -0.00886044
  eigenvalues    EBANDS =        71.44848842
  atomic energy  EATOM  =       809.72612850
  ---------------------------------------------------
  free energy    TOTEN  =        -5.47246967 eV

  energy without entropy =       -5.46360923  energy(sigma->0) =       -5.46951619


--------------------------------------------------------------------------------------------------------




----------------------------------------- Iteration    1(   4)  ---------------------------------------


     EDDAV:  cpu time    0.71: real time    0.72
       DOS:  cpu time    0.00: real time    0.01
    --------------------------------------------
      LOOP:  cpu time    0.72: real time    0.75

 eigenvalue-minimisations  :  1261
 total energy-change (2. order) :-0.1426181E-02  (-0.1426092E-02)
 number of electron      10.0000000 magnetization 
 augmentation part       10.0000000 magnetization 

 Free energy of the ion-electron system (eV)
  ---------------------------------------------------
  alpha Z        PSCENC =        41.73430746
  Ewald energy   TEWEN  =      -831.96025565
  -Hartree energ DENC   =      -129.33084488
  -exchange      EXHF   =         0.00000000
  -V(xc)+E(xc)   XCENC  =       -29.30372314
  PAW double counting   =       806.73831454     -744.51602449
  entropy T*S    EENTRO =        -0.00886345
  eigenvalues    EBANDS =        71.44706525
  atomic energy  EATOM  =       809.72612850
  ---------------------------------------------------
  free energy    TOTEN  =        -5.47389585 eV

  energy without entropy =       -5.46503240  energy(sigma->0) =       -5.47094137


--------------------------------------------------------------------------------------------------------




----------------------------------------- Iteration    1(   5)  ---------------------------------------


     EDDAV:  cpu time    0.72: real time    0.72
       DOS:  cpu time    0.00: real time    0.01
    CHARGE:  cpu time    0.06: real time    0.06
    MIXING:  cpu time    0.00: real time    0.00
    --------------------------------------------
      LOOP:  cpu time    0.78: real time    0.79

 eigenvalue-minimisations  :  1251
 total energy-change (2. order) :-0.1376192E-04  (-0.1376192E-04)
 number of electron       9.9999974 magnetization 
 augmentation part        3.9966502 magnetization 

 Broyden mixing:
  rms(total) = 0.65794E+00    rms(broyden)= 0.65791E+00
  rms(prec ) = 0.14602E+01
  weight for this iteration     100.00

 Free energy of the ion-electron system (eV)
  ---------------------------------------------------
  alpha Z        PSCENC =        41.73430746
  Ewald energy   TEWEN  =      -831.96025565
  -Hartree energ DENC   =      -129.33084488
  -exchange      EXHF   =         0.00000000
  -V(xc)+E(xc)   XCENC  =       -29.30372314
  PAW double counting   =       806.73831454     -744.51602449
  entropy T*S    EENTRO =        -0.00886351
  eigenvalues    EBANDS =        71.44705155
  atomic energy  EATOM  =       809.72612850
  ---------------------------------------------------
  free energy    TOTEN  =        -5.47390962 eV

  energy without entropy =       -5.46504611  energy(sigma->0) =       -5.47095511


--------------------------------------------------------------------------------------------------------




----------------------------------------- Iteration    1(   6)  ---------------------------------------


    POTLOK:  cpu time    0.03: real time    0.03
    SETDIJ:  cpu time    0.01: real time    0.02
     EDDAV:  cpu time    0.63: real time    0.63
       DOS:  cpu time    0.00: real time    0.01
    CHARGE:  cpu time    0.06: real time    0.06
    MIXING:  cpu time    0.00: real time    0.00
    --------------------------------------------
      LOOP:  cpu time    0.73: real time    0.82

 eigenvalue-minimisations  :  1096
 total energy-change (2. order) : 0.2500938E+00  (-0.1286506E+00)
 number of electron       9.9999972 magnetization 
 augmentation part        4.1918783 magnetization 

 Broyden mixing:
  rms(total) = 0.32211E+00    rms(broyden)= 0.32211E+00
  rms(prec ) = 0.34605E+00
  weight for this iteration     100.00

 eigenvalues of (default mixing * dielectric matrix)
  average eigenvalue GAMMA=   1.4638
  1.4638

 Free energy of the ion-electron system (eV)
  ---------------------------------------------------
  alpha Z        PSCENC =        41.73430746
  Ewald energy   TEWEN  =      -831.96025565
  -Hartree energ DENC   =      -121.07502954
  -exchange      EXHF   =         0.00000000
  -V(xc)+E(xc)   XCENC  =       -29.54150782
  PAW double counting   =       858.23496934     -797.33575785
  entropy T*S    EENTRO =        -0.00583909
  eigenvalues    EBANDS =        64.99916882
  atomic energy  EATOM  =       809.72612850
  ---------------------------------------------------
  free energy    TOTEN  =        -5.22381584 eV

  energy without entropy =       -5.21797675  energy(sigma->0) =       -5.22186947


--------------------------------------------------------------------------------------------------------




----------------------------------------- Iteration    1(   7)  ---------------------------------------


    POTLOK:  cpu time    0.02: real time    0.03
    SETDIJ:  cpu time    0.01: real time    0.01
     EDDAV:  cpu time    0.65: real time    0.65
       DOS:  cpu time    0.01: real time    0.01
    CHARGE:  cpu time    0.05: real time    0.05
    MIXING:  cpu time    0.00: real time    0.00
    --------------------------------------------
      LOOP:  cpu time    0.75: real time    0.88

 eigenvalue-minimisations  :  1189
 total energy-change (2. order) : 0.7105250E-02  (-0.2697044E-03)
 number of electron       9.9999972 magnetization 
 augmentation part        4.1969221 magnetization 

 Broyden mixing:
  rms(total) = 0.17791E+00    rms(broyden)= 0.17791E+00
  rms(prec ) = 0.18829E+00
  weight for this iteration     100.00

 eigenvalues of (default mixing * dielectric matrix)
  average eigenvalue GAMMA=   1.7667
  1.0172  2.5162

 Free energy of the ion-electron system (eV)
  ---------------------------------------------------
  alpha Z        PSCENC =        41.73430746
  Ewald energy   TEWEN  =      -831.96025565
  -Hartree energ DENC   =      -120.36347024
  -exchange      EXHF   =         0.00000000
  -V(xc)+E(xc)   XCENC  =       -29.56272212
  PAW double counting   =       895.93869649     -835.54770671
  entropy T*S    EENTRO =        -0.00582276
  eigenvalues    EBANDS =        64.82413445
  atomic energy  EATOM  =       809.72612850
  ---------------------------------------------------
  free energy    TOTEN  =        -5.21671059 eV

  energy without entropy =       -5.21088782  energy(sigma->0) =       -5.21476966


--------------------------------------------------------------------------------------------------------




----------------------------------------- Iteration    1(   8)  ---------------------------------------


    POTLOK:  cpu time    0.02: real time    0.02
    SETDIJ:  cpu time    0.01: real time    0.05
     EDDAV:  cpu time    0.63: real time    0.63
       DOS:  cpu time    0.00: real time    0.00
    CHARGE:  cpu time    0.05: real time    0.05
    MIXING:  cpu time    0.00: real time    0.00
    --------------------------------------------
      LOOP:  cpu time    0.73: real time    0.80

 eigenvalue-minimisations  :  1132
 total energy-change (2. order) : 0.3007557E-02  (-0.8904549E-04)
 number of electron       9.9999972 magnetization 
 augmentation part        4.1987562 magnetization 

 Broyden mixing:
  rms(total) = 0.31911E-02    rms(broyden)= 0.31902E-02
  rms(prec ) = 0.46913E-02
  weight for this iteration     100.00

 eigenvalues of (default mixing * dielectric matrix)
  average eigenvalue GAMMA=   1.5100
  2.4880  0.9956  1.0463

 Free energy of the ion-electron system (eV)
  ---------------------------------------------------
  alpha Z        PSCENC =        41.73430746
  Ewald energy   TEWEN  =      -831.96025565
  -Hartree energ DENC   =      -119.67268449
  -exchange      EXHF   =         0.00000000
  -V(xc)+E(xc)   XCENC  =       -29.58300946
  PAW double counting   =       943.70474616     -883.91556602
  entropy T*S    EENTRO =        -0.00579435
  eigenvalues    EBANDS =        64.75842481
  atomic energy  EATOM  =       809.72612850
  ---------------------------------------------------
  free energy    TOTEN  =        -5.21370303 eV

  energy without entropy =       -5.20790868  energy(sigma->0) =       -5.21177158


--------------------------------------------------------------------------------------------------------




----------------------------------------- Iteration    1(   9)  ---------------------------------------


    POTLOK:  cpu time    0.02: real time    0.02
    SETDIJ:  cpu time    0.01: real time    0.01
     EDDAV:  cpu time    0.41: real time    0.41
       DOS:  cpu time    0.00: real time    0.01
    --------------------------------------------
      LOOP:  cpu time    0.45: real time    0.46

 eigenvalue-minimisations  :   588
 total energy-change (2. order) :-0.5439423E-05  (-0.5458625E-06)
 number of electron       9.9999972 magnetization 
 augmentation part        4.1987562 magnetization 

 Free energy of the ion-electron system (eV)
  ---------------------------------------------------
  alpha Z        PSCENC =        41.73430746
  Ewald energy   TEWEN  =      -831.96025565
  -Hartree energ DENC   =      -119.69384119
  -exchange      EXHF   =         0.00000000
  -V(xc)+E(xc)   XCENC  =       -29.58245332
  PAW double counting   =       943.52212596     -883.70953706
  entropy T*S    EENTRO =        -0.00579420
  eigenvalues    EBANDS =        64.75561102
  atomic energy  EATOM  =       809.72612850
  ---------------------------------------------------
  free energy    TOTEN  =        -5.21370847 eV

  energy without entropy =       -5.20791427  energy(sigma->0) =       -5.21177707


--------------------------------------------------------------------------------------------------------




 average (electrostatic) potential at core
  the test charge radii are     1.1199
  (the norm of the test charge is              1.0000)
       1 -71.2691
 
 
 
 E-fermi :   8.8673     XC(G=0): -12.8295     alpha+bet :-15.7681


 k-point     1 :       0.0625    0.0625    0.0625
  band No.  band energies     occupation 
      1       2.2771      2.00000
      2       6.2243      2.00000
      3       6.3146      2.00000
      4       6.3146      2.00000
      5       7.7189      2.00000
      6       7.7189      2.00000
      7      26.1274      0.00000
      8      29.5192      0.00000
      9      30.5911      0.00000

 k-point     2 :       0.1875    0.0625    0.0625
  band No.  band energies     occupation 
      1       2.9512      2.00000
      2       6.0102      2.00000
      3       6.5099      2.00000
      4       6.5333      2.00000
      5       7.5189      2.00000
      6       7.8267      2.00000
      7      26.2420      0.00000
      8      27.2227      0.00000
      9      30.1303      0.00000

 k-point     3 :       0.3125    0.0625    0.0625
  band No.  band energies     occupation 
      1       4.0129      2.00000
      2       6.2229      2.00000
      3       6.5508      2.00000
      4       6.5845      2.00000
      5       7.7385      2.00000
      6       8.3359      2.00112
      7      22.2130      0.00000
      8      26.6530      0.00000
      9      29.9979      0.00000

 k-point     4 :       0.4375    0.0625    0.0625
  band No.  band energies     occupation 
      1       4.1411      2.00000
      2       6.2644      2.00000
      3       6.3711      2.00000
      4       7.8400      2.00000
      5       8.4484      2.01164
      6       9.5101     -0.00005
      7      17.7656      0.00000
      8      25.7100      0.00000
      9      28.7820      0.00000

 k-point     5 :      -0.4375    0.0625    0.0625
  band No.  band energies     occupation 
      1       4.0818      2.00000
      2       6.1641      2.00000
      3       6.3130      2.00000
      4       8.2585      2.00015
      5       8.8385      1.24096
      6      10.5564      0.00000
      7      15.8342      0.00000
      8      25.4144      0.00000
      9      28.8690      0.00000

 k-point     6 :      -0.3125    0.0625    0.0625
  band No.  band energies     occupation 
      1       4.1620      2.00000
      2       6.3139      2.00000
      3       6.4691      2.00000
      4       7.2127      2.00000
      5       8.5662      2.05478
      6       8.7683      1.73485
      7      19.1583      0.00000
      8      26.0790      0.00000
      9      29.3088      0.00000

 k-point     7 :      -0.1875    0.0625    0.0625
  band No.  band energies     occupation 
      1       3.7210      2.00000
      2       5.9822      2.00000
      3       6.5781      2.00000
      4       6.6286      2.00000
      5       7.6775      2.00000
      6       8.0115      2.00000
      7      23.7396      0.00000
      8      27.0668      0.00000
      9      30.1123      0.00000

 k-point     8 :      -0.0625    0.0625    0.0625
  band No.  band energies     occupation 
      1       2.6263      2.00000
      2       6.0635      2.00000
      3       6.4538      2.00000
      4       6.4593      2.00000
      5       7.5456      2.00000
      6       7.8047      2.00000
      7      26.4024      0.00000
      8      28.3596      0.00000
      9      30.1987      0.00000

 k-point     9 :       0.1875    0.1875    0.0625
  band No.  band energies     occupation 
      1       3.2707      2.00000
      2       5.7542      2.00000
      3       6.7137      2.00000
      4       6.7388      2.00000
      5       7.3145      2.00000
      6       7.9648      2.00000
      7      26.6380      0.00000
      8      27.4629      0.00000
      9      29.1091      0.00000

 k-point    10 :       0.3125    0.1875    0.0625
  band No.  band energies     occupation 
      1       4.2509      2.00000
      2       5.4813      2.00000
      3       6.5311      2.00000
      4       7.0845      2.00000
      5       7.6625      2.00000
      6       8.4518      2.01235
      7      24.1699      0.00000
      8      26.0893      0.00000
      9      28.5168      0.00000

 k-point    11 :       0.4375    0.1875    0.0625
  band No.  band energies     occupation 
      1       4.5957      2.00000
      2       5.9709      2.00000
      3       6.2995      2.00000
      4       6.9548      2.00000
      5       8.5376      2.04165
      6      10.0278      0.00000
      7      19.4978      0.00000
      8      25.4620      0.00000
      9      26.6987      0.00000

 k-point    12 :      -0.4375    0.1875    0.0625
  band No.  band energies     occupation 
      1       4.5368      2.00000
      2       5.8145      2.00000
      3       6.7440      2.00000
      4       7.0856      2.00000
      5       8.7768      1.68576
      6      12.3946      0.00000
      7      15.8850      0.00000
      8      24.8754      0.00000
      9      26.1677      0.00000

 k-point    13 :      -0.3125    0.1875    0.0625
  band No.  band energies     occupation 
      1       4.6451      2.00000
      2       5.9478      2.00000
      3       6.6319      2.00000
      4       6.8901      2.00000
      5       8.3460      2.00142
      6      11.0006      0.00000
      7      18.1211      0.00000
      8      24.4159      0.00000
      9      26.9651      0.00000

 k-point    14 :      -0.1875    0.1875    0.0625
  band No.  band energies     occupation 
      1       4.5977      2.00000
      2       5.6672      2.00000
      3       6.3514      2.00000
      4       7.0434      2.00000
      5       7.5170      2.00000
      6       9.1238     -0.06996
      7      22.6404      0.00000
      8      24.7498      0.00000
      9      28.7243      0.00000

 k-point    15 :      -0.0625    0.1875    0.0625
  band No.  band energies     occupation 
      1       3.5466      2.00000
      2       5.7934      2.00000
      3       6.6255      2.00000
      4       6.7373      2.00000
      5       7.4064      2.00000
      6       8.0657      2.00000
      7      25.3422      0.00000
      8      26.7450      0.00000
      9      29.6452      0.00000

 k-point    16 :       0.3125    0.3125    0.0625
  band No.  band energies     occupation 
      1       4.4710      2.00000
      2       4.9842      2.00000
      3       7.1394      2.00000
      4       7.6191      2.00000
      5       8.1819      2.00001
      6       8.4226      2.00728
      7      24.5097      0.00000
      8      25.5965      0.00000
      9      26.1579      0.00000

 k-point    17 :       0.4375    0.3125    0.0625
  band No.  band energies     occupation 
      1       4.5925      2.00000
      2       4.8446      2.00000
      3       7.0493      2.00000
      4       8.0029      2.00000
      5       8.6061      2.06909
      6      10.2902      0.00000
      7      21.6713      0.00000
      8      23.5695      0.00000
      9      23.9111      0.00000

 k-point    18 :      -0.4375    0.3125    0.0625
  band No.  band energies     occupation 
      1       4.6912      2.00000
      2       5.2408      2.00000
      3       6.6939      2.00000
      4       7.6690      2.00000
      5       8.8473      1.16887
      6      13.5316      0.00000
      7      17.3987      0.00000
      8      21.8264      0.00000
      9      23.9621      0.00000

 k-point    19 :      -0.3125    0.3125    0.0625
  band No.  band energies     occupation 
      1       5.0991      2.00000
      2       5.6301      2.00000
      3       6.1760      2.00000
      4       7.4337      2.00000
      5       8.3852      2.00342
      6      13.7321      0.00000
      7      17.7557      0.00000
      8      20.4055      0.00000
      9      25.5796      0.00000

 k-point    20 :      -0.1875    0.3125    0.0625
  band No.  band energies     occupation 
      1       5.1670      2.00000
      2       5.7989      2.00000
      3       5.9894      2.00000
      4       7.2197      2.00000
      5       7.9034      2.00000
      6      11.0809      0.00000
      7      20.0657      0.00000
      8      22.2747      0.00000
      9      27.1332      0.00000

 k-point    21 :      -0.0625    0.3125    0.0625
  band No.  band energies     occupation 
      1       4.3351      2.00000
      2       6.2724      2.00000
      3       6.3849      2.00000
      4       6.6977      2.00000
      5       8.0587      2.00000
      6       8.9633      0.28230
      7      20.8049      0.00000
      8      26.1328      0.00000
      9      28.5095      0.00000

 k-point    22 :       0.4375    0.4375    0.0625
  band No.  band energies     occupation 
      1       4.1628      2.00000
      2       4.3957      2.00000
      3       8.4601      2.01421
      4       8.5200      2.03397
      5       8.8925      0.78846
      6      10.9275      0.00000
      7      21.1962      0.00000
      8      21.9783      0.00000
      9      22.6943      0.00000

 k-point    23 :      -0.4375    0.4375    0.0625
  band No.  band energies     occupation 
      1       4.2140      2.00000
      2       4.4728      2.00000
      3       7.9985      2.00000
      4       8.4933      2.02376
      5       9.0448     -0.01837
      6      13.3596      0.00000
      7      19.2420      0.00000
      8      20.2535      0.00000
      9      21.9312      0.00000

 k-point    24 :      -0.3125    0.4375    0.0625
  band No.  band energies     occupation 
      1       4.6193      2.00000
      2       5.1097      2.00000
      3       6.8971      2.00000
      4       7.9149      2.00000
      5       8.8016      1.52417
      6      15.4039      0.00000
      7      16.8646      0.00000
      8      19.6335      0.00000
      9      23.5682      0.00000

 k-point    25 :      -0.1875    0.4375    0.0625
  band No.  band energies     occupation 
      1       4.8727      2.00000
      2       5.6045      2.00000
      3       6.6088      2.00000
      4       7.1030      2.00000
      5       8.6219      2.07091
      6      13.5624      0.00000
      7      16.0958      0.00000
      8      22.7954      0.00000
      9      25.6947      0.00000

 k-point    26 :      -0.0625    0.4375    0.0625
  band No.  band energies     occupation 
      1       4.2733      2.00000
      2       6.0714      2.00000
      3       6.4839      2.00000
      4       7.5522      2.00000
      5       8.7124      1.96663
      6      10.8072      0.00000
      7      16.6390      0.00000
      8      25.4810      0.00000
      9      27.6238      0.00000

 k-point    27 :      -0.4375   -0.4375    0.0625
  band No.  band energies     occupation 
      1       4.0096      2.00000
      2       4.2652      2.00000
      3       8.7184      1.94892
      4       8.8066      1.48884
      5       9.0641     -0.04679
      6      12.3214      0.00000
      7      19.3292      0.00000
      8      21.3032      0.00000
      9      22.0102      0.00000

 k-point    28 :      -0.3125   -0.4375    0.0625
  band No.  band energies     occupation 
      1       4.3669      2.00000
      2       4.5990      2.00000
      3       7.6051      2.00000
      4       8.3780      2.00293
      5       8.8657      1.01401
      6      11.8950      0.00000
      7      20.5481      0.00000
      8      21.4689      0.00000
      9      22.5214      0.00000

 k-point    29 :      -0.1875   -0.4375    0.0625
  band No.  band energies     occupation 
      1       4.7162      2.00000
      2       5.5420      2.00000
      3       6.4446      2.00000
      4       7.3070      2.00000
      5       8.7940      1.57657
      6      11.6145      0.00000
      7      18.3258      0.00000
      8      24.2817      0.00000
      9      24.7459      0.00000

 k-point    30 :      -0.3125   -0.3125    0.0625
  band No.  band energies     occupation 
      1       4.3938      2.00000
      2       4.6447      2.00000
      3       7.8444      2.00000
      4       8.1171      2.00000
      5       8.6655      2.05208
      6       9.3472     -0.00359
      7      23.0892      0.00000
      8      23.7858      0.00000
      9      23.9475      0.00000

 k-point    31 :      -0.1875   -0.3125    0.0625
  band No.  band energies     occupation 
      1       4.6723      2.00000
      2       5.1556      2.00000
      3       6.5748      2.00000
      4       7.5235      2.00000
      5       8.1982      2.00002
      6       9.1002     -0.06970
      7      22.9233      0.00000
      8      24.8967      0.00000
      9      26.3907      0.00000

 k-point    32 :      -0.1875   -0.1875    0.0625
  band No.  band energies     occupation 
      1       4.0313      2.00000
      2       5.3718      2.00000
      3       6.8342      2.00000
      4       7.1375      2.00000
      5       7.4844      2.00000
      6       8.1798      2.00001
      7      25.8180      0.00000
      8      27.4258      0.00000
      9      27.4593      0.00000

 k-point    33 :       0.1875    0.1875    0.1875
  band No.  band energies     occupation 
      1       3.2288      2.00000
      2       6.0522      2.00000
      3       6.5336      2.00000
      4       6.5336      2.00000
      5       7.7066      2.00000
      6       7.7066      2.00000
      7      25.0889      0.00000
      8      27.1419      0.00000
      9      31.4745      0.00000

 k-point    34 :       0.3125    0.1875    0.1875
  band No.  band energies     occupation 
      1       4.0366      2.00000
      2       5.7820      2.00000
      3       6.5653      2.00000
      4       6.8251      2.00000
      5       7.3274      2.00000
      6       8.4814      2.01995
      7      23.9452      0.00000
      8      25.8229      0.00000
      9      29.9665      0.00000

 k-point    35 :       0.4375    0.1875    0.1875
  band No.  band energies     occupation 
      1       4.9232      2.00000
      2       5.8075      2.00000
      3       6.2780      2.00000
      4       6.9903      2.00000
      5       7.5545      2.00000
      6       9.9853      0.00000
      7      21.2809      0.00000
      8      23.4578      0.00000
      9      28.4369      0.00000

 k-point    36 :      -0.4375    0.1875    0.1875
  band No.  band energies     occupation 
      1       4.7325      2.00000
      2       5.8183      2.00000
      3       6.8415      2.00000
      4       6.8421      2.00000
      5       8.4088      2.00556
      6      12.1705      0.00000
      7      16.9681      0.00000
      8      23.4794      0.00000
      9      27.4463      0.00000

 k-point    37 :      -0.3125    0.1875    0.1875
  band No.  band energies     occupation 
      1       4.5900      2.00000
      2       5.7559      2.00000
      3       6.7510      2.00000
      4       6.9251      2.00000
      5       8.8812      0.88319
      6      12.0205      0.00000
      7      16.7961      0.00000
      8      24.4987      0.00000
      9      26.6366      0.00000

 k-point    38 :      -0.1875    0.1875    0.1875
  band No.  band energies     occupation 
      1       4.5998      2.00000
      2       5.5344      2.00000
      3       6.4295      2.00000
      4       7.1331      2.00000
      5       8.6653      2.05229
      6       9.2629     -0.01716
      7      21.1134      0.00000
      8      26.1105      0.00000
      9      26.4463      0.00000

 k-point    39 :       0.3125    0.3125    0.1875
  band No.  band energies     occupation 
      1       4.2705      2.00000
      2       5.8066      2.00000
      3       6.4416      2.00000
      4       6.8277      2.00000
      5       8.1857      2.00002
      6       8.3548      2.00174
      7      22.4165      0.00000
      8      26.9056      0.00000
      9      28.2505      0.00000

 k-point    40 :       0.4375    0.3125    0.1875
  band No.  band energies     occupation 
      1       4.9633      2.00000
      2       5.5121      2.00000
      3       6.0898      2.00000
      4       7.4177      2.00000
      5       7.9855      2.00000
      6      10.0467      0.00000
      7      21.4036      0.00000
      8      23.5831      0.00000
      9      26.6491      0.00000

 k-point    41 :      -0.4375    0.3125    0.1875
  band No.  band energies     occupation 
      1       5.3213      2.00000
      2       5.5010      2.00000
      3       5.8842      2.00000
      4       7.5422      2.00000
      5       8.3498      2.00155
      6      12.5249      0.00000
      7      18.9845      0.00000
      8      21.3027      0.00000
      9      24.7902      0.00000

 k-point    42 :      -0.3125    0.3125    0.1875
  band No.  band energies     occupation 
      1       5.0528      2.00000
      2       5.3956      2.00000
      3       6.2937      2.00000
      4       7.4482      2.00000
      5       8.7429      1.85929
      6      14.4774      0.00000
      7      16.2698      0.00000
      8      22.3300      0.00000
      9      23.2127      0.00000

 k-point    43 :      -0.1875    0.3125    0.1875
  band No.  band energies     occupation 
      1       4.9284      2.00000
      2       5.2277      2.00000
      3       6.2940      2.00000
      4       7.8278      2.00000
      5       8.4325      2.00876
      6      11.3900      0.00000
      7      20.2620      0.00000
      8      22.4674      0.00000
      9      24.2206      0.00000

 k-point    44 :       0.4375    0.4375    0.1875
  band No.  band energies     occupation 
      1       4.5945      2.00000
      2       5.1635      2.00000
      3       6.8199      2.00000
      4       7.5176      2.00000
      5       8.8787      0.90384
      6      10.7731      0.00000
      7      19.8831      0.00000
      8      24.0170      0.00000
      9      24.9424      0.00000

 k-point    45 :      -0.4375    0.4375    0.1875
  band No.  band energies     occupation 
      1       4.7262      2.00000
      2       4.9794      2.00000
      3       6.7106      2.00000
      4       8.0670      2.00000
      5       8.7943      1.57497
      6      13.1026      0.00000
      7      19.3290      0.00000
      8      21.3694      0.00000
      9      21.9657      0.00000

 k-point    46 :      -0.3125    0.4375    0.1875
  band No.  band energies     occupation 
      1       4.9102      2.00000
      2       5.4189      2.00000
      3       6.1544      2.00000
      4       7.7220      2.00000
      5       9.0358     -0.00019
      6      16.2284      0.00000
      7      17.5903      0.00000
      8      19.5374      0.00000
      9      20.6997      0.00000

 k-point    47 :      -0.1875    0.4375    0.1875
  band No.  band energies     occupation 
      1       5.1034      2.00000
      2       5.4273      2.00000
      3       6.0045      2.00000
      4       7.7081      2.00000
      5       8.7637      1.75998
      6      14.3253      0.00000
      7      18.1064      0.00000
      8      20.5844      0.00000
      9      22.2821      0.00000

 k-point    48 :      -0.4375   -0.4375    0.1875
  band No.  band energies     occupation 
      1       4.3383      2.00000
      2       4.7216      2.00000
      3       7.6098      2.00000
      4       8.2398      2.00008
      5       8.9017      0.71412
      6      14.1808      0.00000
      7      18.2756      0.00000
      8      19.5663      0.00000
      9      23.3089      0.00000

 k-point    49 :      -0.3125   -0.4375    0.1875
  band No.  band energies     occupation 
      1       4.5684      2.00000
      2       4.8698      2.00000
      3       7.0340      2.00000
      4       8.0869      2.00000
      5       9.0377     -0.00428
      6      14.7630      0.00000
      7      18.7154      0.00000
      8      19.6004      0.00000
      9      21.2873      0.00000

 k-point    50 :      -0.3125   -0.3125    0.1875
  band No.  band energies     occupation 
      1       4.4529      2.00000
      2       4.8672      2.00000
      3       7.3001      2.00000
      4       7.9237      2.00000
      5       8.9507      0.35783
      6      12.5589      0.00000
      7      18.8762      0.00000
      8      21.5497      0.00000
      9      23.8684      0.00000

 k-point    51 :       0.3125    0.3125    0.3125
  band No.  band energies     occupation 
      1       4.0420      2.00000
      2       6.4540      2.00000
      3       6.4540      2.00000
      4       6.9655      2.00000
      5       8.1825      2.00001
      6       8.1825      2.00001
      7      20.5990      0.00000
      8      26.4100      0.00000
      9      31.2128      0.00000

 k-point    52 :       0.4375    0.3125    0.3125
  band No.  band energies     occupation 
      1       4.4594      2.00000
      2       6.1869      2.00000
      3       6.6291      2.00000
      4       6.7926      2.00000
      5       8.0186      2.00000
      6       9.8266      0.00000
      7      19.3781      0.00000
      8      25.2523      0.00000
      9      28.0197      0.00000

 k-point    53 :      -0.4375    0.3125    0.3125
  band No.  band energies     occupation 
      1       5.1641      2.00000
      2       5.7808      2.00000
      3       6.1771      2.00000
      4       7.1919      2.00000
      5       8.0573      2.00000
      6      12.2707      0.00000
      7      18.8659      0.00000
      8      21.1758      0.00000
      9      27.8540      0.00000

 k-point    54 :      -0.3125    0.3125    0.3125
  band No.  band energies     occupation 
      1       4.7913      2.00000
      2       5.4491      2.00000
      3       6.5797      2.00000
      4       7.6416      2.00000
      5       8.5431      2.04417
      6      15.1036      0.00000
      7      16.5595      0.00000
      8      19.8772      0.00000
      9      25.5644      0.00000

 k-point    55 :       0.4375    0.4375    0.3125
  band No.  band energies     occupation 
      1       4.3618      2.00000
      2       6.0658      2.00000
      3       6.6325      2.00000
      4       6.9673      2.00000
      5       8.8163      1.41658
      6      10.2103      0.00000
      7      17.8804      0.00000
      8      25.7709      0.00000
      9      27.7697      0.00000

 k-point    56 :      -0.4375    0.4375    0.3125
  band No.  band energies     occupation 
      1       4.8753      2.00000
      2       5.6209      2.00000
      3       6.4647      2.00000
      4       7.1499      2.00000
      5       8.6320      2.07015
      6      12.5854      0.00000
      7      17.0485      0.00000
      8      23.6968      0.00000
      9      24.8698      0.00000

 k-point    57 :      -0.3125    0.4375    0.3125
  band No.  band energies     occupation 
      1       5.0109      2.00000
      2       5.4558      2.00000
      3       6.1721      2.00000
      4       7.6380      2.00000
      5       8.7636      1.76057
      6      15.5209      0.00000
      7      16.8223      0.00000
      8      19.9480      0.00000
      9      22.9555      0.00000

 k-point    58 :      -0.4375   -0.4375    0.3125
  band No.  band energies     occupation 
      1       4.7522      2.00000
      2       5.5230      2.00000
      3       6.6286      2.00000
      4       7.2998      2.00000
      5       8.7580      1.78904
      6      14.0025      0.00000
      7      16.0489      0.00000
      8      22.1784      0.00000
      9      25.9116      0.00000

 k-point    59 :       0.4375    0.4375    0.4375
  band No.  band energies     occupation 
      1       4.0141      2.00000
      2       6.2618      2.00000
      3       6.2618      2.00000
      4       8.7438      1.85547
      5       8.7438      1.85547
      6       9.3673     -0.00232
      7      16.5519      0.00000
      8      25.4762      0.00000
      9      29.6344      0.00000

 k-point    60 :      -0.4375    0.4375    0.4375
  band No.  band energies     occupation 
      1       4.3324      2.00000
      2       5.9918      2.00000
      3       6.5170      2.00000
      4       7.5603      2.00000
      5       8.7127      1.96567
      6      11.6600      0.00000
      7      15.8673      0.00000
      8      25.1541      0.00000
      9      27.5172      0.00000


--------------------------------------------------------------------------------------------------------


 soft charge-density along one line, spin component           1
         0         1         2         3         4         5         6         7         8         9
x     5.8012    0.0000    0.8542    0.0000   -0.2874    0.0000   -0.0104    0.0000    0.0131    0.0000
x     0.0006    0.0000    0.0000    0.0000    0.0000    0.0000
y     5.8012    0.0000    0.8542    0.0000   -0.2874    0.0000   -0.0104    0.0000    0.0131    0.0000
y     0.0006    0.0000    0.0000    0.0000    0.0000    0.0000
z     5.8012    0.0000    0.8542    0.0000   -0.2874    0.0000   -0.0104    0.0000    0.0131    0.0000
z     0.0006    0.0000    0.0000    0.0000    0.0000    0.0000
 total charge-density along one line
x    10.0000    0.0000    3.7041    0.0000    0.4715    0.0000   -0.0100    0.0000    0.0067    0.0000
x     0.0016    0.0000   -0.0004    0.0000    0.0002    0.0000   -0.0001    0.0000    0.0001    0.0000
x     0.0000    0.0000    0.0000    0.0000    0.0000    0.0000    0.0000    0.0000    0.0000    0.0000
y    10.0000    0.0000    3.7041    0.0000    0.4715    0.0000   -0.0100    0.0000    0.0067    0.0000
y     0.0016    0.0000   -0.0004    0.0000    0.0002    0.0000   -0.0001    0.0000    0.0001    0.0000
y     0.0000    0.0000    0.0000    0.0000    0.0000    0.0000    0.0000    0.0000    0.0000    0.0000
z    10.0000    0.0000    3.7041    0.0000    0.4715    0.0000   -0.0100    0.0000    0.0067    0.0000
z     0.0016    0.0000   -0.0004    0.0000    0.0002    0.0000   -0.0001    0.0000    0.0001    0.0000
z     0.0000    0.0000    0.0000    0.0000    0.0000    0.0000    0.0000    0.0000    0.0000    0.0000
 
 pseudopotential strength for first ion, spin component:           1
 -2.477   0.000   0.000  -0.014   0.000  -2.711   0.000   0.000
  0.000  -2.467   0.000   0.000  -0.014   0.000  -2.702   0.000
  0.000   0.000  -2.487   0.000   0.000   0.000   0.000  -2.721
 -0.014   0.000   0.000  -2.467   0.000  -0.014   0.000   0.000
  0.000  -0.014   0.000   0.000  -2.477   0.000  -0.014   0.000
 -2.711   0.000   0.000  -0.014   0.000  -2.913   0.000   0.000
  0.000  -2.702   0.000   0.000  -0.014   0.000  -2.903   0.000
  0.000   0.000  -2.721   0.000   0.000   0.000   0.000  -2.922
 -0.014   0.000   0.000  -2.702   0.000  -0.013   0.000   0.000
  0.000  -0.014   0.000   0.000  -2.711   0.000  -0.013   0.000
  0.000   0.000   0.000   0.000   0.000   0.000   0.000   0.000
  0.000   0.000   0.000   0.000   0.000   0.000   0.000   0.000
  0.000   0.000   0.000   0.000   0.000   0.000   0.000   0.000
  0.000   0.000   0.000   0.000   0.000   0.000   0.000   0.000
  0.000   0.000   0.000   0.000   0.000   0.000   0.000   0.000
  0.000   0.000   0.000   0.000   0.000   0.000   0.000   0.000
  0.000   0.000   0.000   0.000   0.000   0.000   0.000   0.000
  0.000   0.000   0.000   0.000   0.000   0.000   0.000   0.000
 total augmentation occupancy for first ion, spin component:           1
  2.921   0.000   0.000  -0.241   0.000  -1.539   0.000   0.000   0.049   0.000   0.000   0.000   0.000   0.000   0.000   0.000
  0.000   3.092   0.000   0.000  -0.241   0.000  -1.574   0.000   0.000   0.049   0.000   0.000   0.000   0.000   0.000   0.000
  0.000   0.000   2.751   0.000   0.000   0.000   0.000  -1.504   0.000   0.000   0.000   0.000   0.000   0.000   0.000   0.000
 -0.241   0.000   0.000   3.092   0.000   0.049   0.000   0.000  -1.574   0.000   0.000   0.000   0.000   0.000   0.000   0.000
  0.000  -0.241   0.000   0.000   2.921   0.000   0.049   0.000   0.000  -1.539   0.000   0.000   0.000   0.000   0.000   0.000
 -1.539   0.000   0.000   0.049   0.000   1.937   0.000   0.000   0.090   0.000   0.000   0.000   0.000   0.000   0.000   0.000
  0.000  -1.574   0.000   0.000   0.049   0.000   1.874   0.000   0.000   0.090   0.000   0.000   0.000   0.000   0.000   0.000
  0.000   0.000  -1.504   0.000   0.000   0.000   0.000   2.001   0.000   0.000   0.000   0.000   0.000   0.000   0.000   0.000
  0.049   0.000   0.000  -1.574   0.000   0.090   0.000   0.000   1.874   0.000   0.000   0.000   0.000   0.000   0.000   0.000
  0.000   0.049   0.000   0.000  -1.539   0.000   0.090   0.000   0.000   1.937   0.000   0.000   0.000   0.000   0.000   0.000
  0.000   0.000   0.000   0.000   0.000   0.000   0.000   0.000   0.000   0.000   1.953  -0.303   0.000   0.000   0.000   0.000
  0.000   0.000   0.000   0.000   0.000   0.000   0.000   0.000   0.000   0.000  -0.303   0.050   0.000   0.000   0.000   0.000
  0.000   0.000   0.000   0.000   0.000   0.000   0.000   0.000   0.000   0.000   0.000   0.000   0.222   0.000   0.000  -0.013
  0.000   0.000   0.000   0.000   0.000   0.000   0.000   0.000   0.000   0.000   0.000   0.000   0.000   0.222   0.000   0.000
  0.000   0.000   0.000   0.000   0.000   0.000   0.000   0.000   0.000   0.000   0.000   0.000   0.000   0.000   0.222   0.000
  0.000   0.000   0.000   0.000   0.000   0.000   0.000   0.000   0.000   0.000   0.000   0.000  -0.013   0.000   0.000   0.001
  0.000   0.000   0.000   0.000   0.000   0.000   0.000   0.000   0.000   0.000   0.000   0.000   0.000  -0.013   0.000   0.000
  0.000   0.000   0.000   0.000   0.000   0.000   0.000   0.000   0.000   0.000   0.000   0.000   0.000   0.000  -0.013   0.000


------------------------ aborting loop because EDIFF is reached ----------------------------------------


    CHARGE:  cpu time    0.05: real time    0.05
    FORLOC:  cpu time    0.00: real time    0.00
    FORNL :  cpu time    0.08: real time    0.08
    STRESS:  cpu time    0.25: real time    0.25
    FORCOR:  cpu time    0.02: real time    0.03
    FORHAR:  cpu time    0.01: real time    0.01
    MIXING:  cpu time    0.00: real time    0.00
    OFIELD:  cpu time    0.00: real time    0.00

  FORCE on cell =-STRESS in cart. coord.  units (eV):
  Direction    XX          YY          ZZ          XY          YZ          ZX
  --------------------------------------------------------------------------------------
  Alpha Z    41.73431    41.73431    41.73431
  Ewald    -277.32009  -277.32009  -277.32009     0.00000     0.00000     0.00000
  Hartree    39.90187    39.90187    39.90187     0.00000     0.00000     0.00000
  E(xc)     -52.36071   -52.36071   -52.36071     0.00000     0.00000     0.00000
  Local      41.70320    41.70313    41.70311     0.00007     0.00003     0.00005
  n-local    -7.01990    -5.08934    -1.15589     0.43105    -0.24190     2.54919
  augment    74.24238    74.24246    74.24248    -0.00007    -0.00003    -0.00005
  Kinetic   134.89014   135.12089   138.32291     0.36128    -0.63326     2.10696
  Fock        0.00000     0.00000     0.00000     0.00000     0.00000     0.00000
  -------------------------------------------------------------------------------------
  Total      -0.40943    -0.40943    -0.40943     0.00000     0.00000     0.00000
  in kB     -42.00537   -42.00537   -42.00537     0.00000     0.00000     0.00000
  external pressure =      -42.01 kB  Pullay stress =        0.00 kB


 VOLUME and BASIS-vectors are now :
 -----------------------------------------------------------------------------
  energy-cutoff  :      350.00
  volume of cell :       15.62
      direct lattice vectors                 reciprocal lattice vectors
     2.805658286  0.000000000  0.000000000     0.356422592 -0.205780680 -0.145508914
     1.402829143  2.429771350  0.000000000     0.000000000  0.411561359 -0.145508914
     1.402829143  0.809923783  2.290810398     0.000000000  0.000000000  0.436526742

  length of vectors
     2.805658286  2.805658286  2.805658286     0.436526742  0.436526742  0.436526742


 FORCES acting on ions
    electron-ion (+dipol)            ewald-force                    non-local-force                 convergence-correction
 -----------------------------------------------------------------------------------------------
   -.338E-13 0.202E-14 0.142E-15   0.641E-15 -.146E-15 0.391E-15   -.132E-22 0.000E+00 0.000E+00   -.522E-14 -.584E-14 -.467E-14
 -----------------------------------------------------------------------------------------------
   -.338E-13 0.202E-14 0.142E-15   0.641E-15 -.146E-15 0.391E-15   -.132E-22 0.000E+00 0.000E+00   -.522E-14 -.584E-14 -.467E-14
 
 
 POSITION                                       TOTAL-FORCE (eV/Angst)
 -----------------------------------------------------------------------------------
      0.00000      0.00000      0.00000         0.000000      0.000000      0.000000
 -----------------------------------------------------------------------------------
    total drift:                                0.000000      0.000000      0.000000


--------------------------------------------------------------------------------------------------------



  FREE ENERGIE OF THE ION-ELECTRON SYSTEM (eV)
  ---------------------------------------------------
  free  energy   TOTEN  =        -5.21370847 eV

  energy  without entropy=       -5.20791427  energy(sigma->0) =       -5.21177707
 


--------------------------------------------------------------------------------------------------------


    POTLOK:  cpu time    0.03: real time    0.06


--------------------------------------------------------------------------------------------------------


 stress matrix after NEB project (eV)
     -0.40943      0.00000      0.00000
      0.00000     -0.40943      0.00000
      0.00000      0.00000     -0.40943
  FORCES: max atom, RMS     0.000000    0.000000
  FORCE total and by dimension    0.000000    0.000000
  Stress total and by dimension    0.709160    0.409434


--------------------------------------------------------------------------------------------------------


  
 reached required accuracy - stopping structural energy minimisation
 writing wavefunctions
     LOOP+:  cpu time    6.71: real time    7.19
    4ORBIT:  cpu time    0.00: real time    0.00

 total amount of memory used by VASP on root node    35710. kBytes
========================================================================

   base      :      30000. kBytes
   nonl-proj :       2164. kBytes
   grid      :       1216. kBytes
   one-center:         15. kBytes
   wavefun   :       2315. kBytes
 
  
  
 General timing and accounting informations for this job:
 ========================================================
  
                  Total CPU time used (sec):        7.104
                            User time (sec):        7.014
                          System time (sec):        0.090
                         Elapsed time (sec):        7.655
  
                   Maximum memory used (kb):           0.
                   Average memory used (kb):           0.
  
                          Minor page faults:         5519
                          Major page faults:            0
                 Voluntary context switches:         2585
