<?xml version="1.0" encoding="ISO-8859-1"?>
<modeling>
 <generator>
  <i name="program" type="string">vasp </i>
  <i name="version" type="string">5.3.5  </i>
  <i name="subversion" type="string">31Mar14 (build Jan 09 2015 16:57:47) complex                          serial </i>
  <i name="platform" type="string">LinuxIFC </i>
  <i name="date" type="string">2015 03 24 </i>
  <i name="time" type="string">14:25:57 </i>
 </generator>
 <incar>
  <i type="string" name="PREC">normal</i>
  <i type="int" name="IBRION">     2</i>
  <i type="int" name="NSW">    30</i>
  <i type="int" name="ISIF">     2</i>
  <i name="ENCUT">    350.00000000</i>
 </incar>
 <kpoints>
  <generation param="Monkhorst-Pack">
   <v type="int" name="divisions">       8        8        8 </v>
   <v name="usershift">      0.00000000       0.00000000       0.00000000 </v>
   <v name="genvec1">      0.12500000       0.00000000       0.00000000 </v>
   <v name="genvec2">      0.00000000       0.12500000       0.00000000 </v>
   <v name="genvec3">      0.00000000       0.00000000       0.12500000 </v>
   <v name="shift">      0.50000000       0.50000000       0.50000000 </v>
  </generation>
  <varray name="kpointlist" >
   <v>       0.06250000       0.06250000       0.06250000 </v>
   <v>       0.18750000       0.06250000       0.06250000 </v>
   <v>       0.31250000       0.06250000       0.06250000 </v>
   <v>       0.43750000       0.06250000       0.06250000 </v>
   <v>      -0.43750000       0.06250000       0.06250000 </v>
   <v>      -0.31250000       0.06250000       0.06250000 </v>
   <v>      -0.18750000       0.06250000       0.06250000 </v>
   <v>      -0.06250000       0.06250000       0.06250000 </v>
   <v>       0.18750000       0.18750000       0.06250000 </v>
   <v>       0.31250000       0.18750000       0.06250000 </v>
   <v>       0.43750000       0.18750000       0.06250000 </v>
   <v>      -0.43750000       0.18750000       0.06250000 </v>
   <v>      -0.31250000       0.18750000       0.06250000 </v>
   <v>      -0.18750000       0.18750000       0.06250000 </v>
   <v>      -0.06250000       0.18750000       0.06250000 </v>
   <v>       0.31250000       0.31250000       0.06250000 </v>
   <v>       0.43750000       0.31250000       0.06250000 </v>
   <v>      -0.43750000       0.31250000       0.06250000 </v>
   <v>      -0.31250000       0.31250000       0.06250000 </v>
   <v>      -0.18750000       0.31250000       0.06250000 </v>
   <v>      -0.06250000       0.31250000       0.06250000 </v>
   <v>       0.43750000       0.43750000       0.06250000 </v>
   <v>      -0.43750000       0.43750000       0.06250000 </v>
   <v>      -0.31250000       0.43750000       0.06250000 </v>
   <v>      -0.18750000       0.43750000       0.06250000 </v>
   <v>      -0.06250000       0.43750000       0.06250000 </v>
   <v>      -0.43750000      -0.43750000       0.06250000 </v>
   <v>      -0.31250000      -0.43750000       0.06250000 </v>
   <v>      -0.18750000      -0.43750000       0.06250000 </v>
   <v>      -0.31250000      -0.31250000       0.06250000 </v>
   <v>      -0.18750000      -0.31250000       0.06250000 </v>
   <v>      -0.18750000      -0.18750000       0.06250000 </v>
   <v>       0.18750000       0.18750000       0.18750000 </v>
   <v>       0.31250000       0.18750000       0.18750000 </v>
   <v>       0.43750000       0.18750000       0.18750000 </v>
   <v>      -0.43750000       0.18750000       0.18750000 </v>
   <v>      -0.31250000       0.18750000       0.18750000 </v>
   <v>      -0.18750000       0.18750000       0.18750000 </v>
   <v>       0.31250000       0.31250000       0.18750000 </v>
   <v>       0.43750000       0.31250000       0.18750000 </v>
   <v>      -0.43750000       0.31250000       0.18750000 </v>
   <v>      -0.31250000       0.31250000       0.18750000 </v>
   <v>      -0.18750000       0.31250000       0.18750000 </v>
   <v>       0.43750000       0.43750000       0.18750000 </v>
   <v>      -0.43750000       0.43750000       0.18750000 </v>
   <v>      -0.31250000       0.43750000       0.18750000 </v>
   <v>      -0.18750000       0.43750000       0.18750000 </v>
   <v>      -0.43750000      -0.43750000       0.18750000 </v>
   <v>      -0.31250000      -0.43750000       0.18750000 </v>
   <v>      -0.31250000      -0.31250000       0.18750000 </v>
   <v>       0.31250000       0.31250000       0.31250000 </v>
   <v>       0.43750000       0.31250000       0.31250000 </v>
   <v>      -0.43750000       0.31250000       0.31250000 </v>
   <v>      -0.31250000       0.31250000       0.31250000 </v>
   <v>       0.43750000       0.43750000       0.31250000 </v>
   <v>      -0.43750000       0.43750000       0.31250000 </v>
   <v>      -0.31250000       0.43750000       0.31250000 </v>
   <v>      -0.43750000      -0.43750000       0.31250000 </v>
   <v>       0.43750000       0.43750000       0.43750000 </v>
   <v>      -0.43750000       0.43750000       0.43750000 </v>
  </varray>
  <varray name="weights" >
   <v>       0.00390625 </v>
   <v>       0.01171875 </v>
   <v>       0.01171875 </v>
   <v>       0.01171875 </v>
   <v>       0.01171875 </v>
   <v>       0.01171875 </v>
   <v>       0.01171875 </v>
   <v>       0.01171875 </v>
   <v>       0.01171875 </v>
   <v>       0.02343750 </v>
   <v>       0.02343750 </v>
   <v>       0.02343750 </v>
   <v>       0.02343750 </v>
   <v>       0.02343750 </v>
   <v>       0.02343750 </v>
   <v>       0.01171875 </v>
   <v>       0.02343750 </v>
   <v>       0.02343750 </v>
   <v>       0.02343750 </v>
   <v>       0.02343750 </v>
   <v>       0.02343750 </v>
   <v>       0.01171875 </v>
   <v>       0.02343750 </v>
   <v>       0.02343750 </v>
   <v>       0.02343750 </v>
   <v>       0.02343750 </v>
   <v>       0.01171875 </v>
   <v>       0.02343750 </v>
   <v>       0.02343750 </v>
   <v>       0.01171875 </v>
   <v>       0.02343750 </v>
   <v>       0.01171875 </v>
   <v>       0.00390625 </v>
   <v>       0.01171875 </v>
   <v>       0.01171875 </v>
   <v>       0.01171875 </v>
   <v>       0.01171875 </v>
   <v>       0.01171875 </v>
   <v>       0.01171875 </v>
   <v>       0.02343750 </v>
   <v>       0.02343750 </v>
   <v>       0.02343750 </v>
   <v>       0.02343750 </v>
   <v>       0.01171875 </v>
   <v>       0.02343750 </v>
   <v>       0.02343750 </v>
   <v>       0.02343750 </v>
   <v>       0.01171875 </v>
   <v>       0.02343750 </v>
   <v>       0.01171875 </v>
   <v>       0.00390625 </v>
   <v>       0.01171875 </v>
   <v>       0.01171875 </v>
   <v>       0.01171875 </v>
   <v>       0.01171875 </v>
   <v>       0.02343750 </v>
   <v>       0.02343750 </v>
   <v>       0.01171875 </v>
   <v>       0.00390625 </v>
   <v>       0.01171875 </v>
  </varray>
 </kpoints>
 <parameters>
  <separator name="general" >
   <i type="string" name="SYSTEM">unknown system</i>
   <i type="logical" name="LCOMPAT"> F  </i>
  </separator>
  <separator name="electronic" >
   <i type="string" name="PREC">normal</i>
   <i name="ENMAX">    350.00000000</i>
   <i name="ENAUG">    416.23000000</i>
   <i name="EDIFF">      0.00010000</i>
   <i type="int" name="IALGO">    38</i>
   <i type="int" name="IWAVPR">    11</i>
   <i type="int" name="NBANDS">     9</i>
   <i name="NELECT">     10.00000000</i>
   <i type="int" name="TURBO">     0</i>
   <i type="int" name="IRESTART">     0</i>
   <i type="int" name="NREBOOT">     0</i>
   <i type="int" name="NMIN">     0</i>
   <i name="EREF">      0.00000000</i>
   <separator name="electronic smearing" >
    <i type="int" name="ISMEAR">     1</i>
    <i name="SIGMA">      0.20000000</i>
    <i name="KSPACING">      0.50000000</i>
    <i type="logical" name="KGAMMA"> T  </i>
   </separator>
   <separator name="electronic projectors" >
    <i type="logical" name="LREAL"> F  </i>
    <v name="ROPT">      0.00000000</v>
    <i type="int" name="LMAXPAW">  -100</i>
    <i type="int" name="LMAXMIX">     2</i>
    <i type="logical" name="NLSPLINE"> F  </i>
   </separator>
   <separator name="electronic startup" >
    <i type="int" name="ISTART">     0</i>
    <i type="int" name="ICHARG">     2</i>
    <i type="int" name="INIWAV">     1</i>
   </separator>
   <separator name="electronic spin" >
    <i type="int" name="ISPIN">     1</i>
    <i type="logical" name="LNONCOLLINEAR"> F  </i>
    <v name="MAGMOM">      1.00000000</v>
    <i name="NUPDOWN">     -1.00000000</i>
    <i type="logical" name="LSORBIT"> F  </i>
    <v name="SAXIS">      0.00000000      0.00000000      1.00000000</v>
    <i type="logical" name="LSPIRAL"> F  </i>
    <v name="QSPIRAL">      0.00000000      0.00000000      0.00000000</v>
    <i type="logical" name="LZEROZ"> F  </i>
   </separator>
   <separator name="electronic exchange-correlation" >
    <i type="logical" name="LASPH"> F  </i>
    <i type="logical" name="LMETAGGA"> F  </i>
   </separator>
   <separator name="electronic convergence" >
    <i type="int" name="NELM">    60</i>
    <i type="int" name="NELMDL">    -5</i>
    <i type="int" name="NELMIN">     2</i>
    <i name="ENINI">    350.00000000</i>
    <separator name="electronic convergence detail" >
     <i type="logical" name="LDIAG"> T  </i>
     <i type="logical" name="LSUBROT"> F  </i>
     <i name="WEIMIN">      0.00100000</i>
     <i name="EBREAK">      0.00000278</i>
     <i name="DEPER">      0.30000000</i>
     <i type="int" name="NRMM">     4</i>
     <i name="TIME">      0.40000000</i>
    </separator>
   </separator>
   <separator name="electronic mixer" >
    <i name="AMIX">      0.40000000</i>
    <i name="BMIX">      1.00000000</i>
    <i name="AMIN">      0.10000000</i>
    <i name="AMIX_MAG">      1.60000000</i>
    <i name="BMIX_MAG">      1.00000000</i>
    <separator name="electronic mixer details" >
     <i type="int" name="IMIX">     4</i>
     <i type="int" name="MAXMIX">   -45</i>
     <i name="WC">    100.00000000</i>
     <i type="int" name="INIMIX">     1</i>
     <i type="int" name="MIXPRE">     1</i>
     <i type="int" name="MREMOVE">     5</i>
    </separator>
   </separator>
   <separator name="electronic dipolcorrection" >
    <i type="logical" name="LDIPOL"> F  </i>
    <i type="logical" name="LMONO"> F  </i>
    <i type="int" name="IDIPOL">     0</i>
    <i name="EPSILON">      1.00000000</i>
    <v name="DIPOL">   -100.00000000   -100.00000000   -100.00000000</v>
    <i name="EFIELD">      0.00000000</i>
   </separator>
  </separator>
  <separator name="grids" >
   <i type="int" name="NGX">    14</i>
   <i type="int" name="NGY">    14</i>
   <i type="int" name="NGZ">    14</i>
   <i type="int" name="NGXF">    28</i>
   <i type="int" name="NGYF">    28</i>
   <i type="int" name="NGZF">    28</i>
   <i type="logical" name="ADDGRID"> F  </i>
  </separator>
  <separator name="ionic" >
   <i type="int" name="NSW">    30</i>
   <i type="int" name="IBRION">     2</i>
   <i type="int" name="ISIF">     2</i>
   <i name="PSTRESS">      0.00000000</i>
   <i name="EDIFFG">      0.00100000</i>
   <i type="int" name="NFREE">     1</i>
   <i name="POTIM">      0.50000000</i>
   <i name="SMASS">     -3.00000000</i>
   <i name="SCALEE">      1.00000000</i>
  </separator>
  <separator name="ionic md" >
   <i name="TEBEG">      0.00010000</i>
   <i name="TEEND">      0.00010000</i>
   <i type="int" name="NBLOCK">     1</i>
   <i type="int" name="KBLOCK">    30</i>
   <i type="int" name="NPACO">   256</i>
   <i name="APACO">     16.00000000</i>
  </separator>
  <separator name="symmetry" >
   <i type="int" name="ISYM">     2</i>
   <i name="SYMPREC">      0.00001000</i>
  </separator>
  <separator name="dos" >
   <i type="logical" name="LORBIT"> F  </i>
   <v name="RWIGS">     -1.00000000</v>
   <i type="int" name="NEDOS">   301</i>
   <i name="EMIN">     10.00000000</i>
   <i name="EMAX">    -10.00000000</i>
   <i name="EFERMI">      0.00000000</i>
  </separator>
  <separator name="writing" >
   <i type="int" name="NWRITE">     2</i>
   <i type="logical" name="LWAVE"> T  </i>
   <i type="logical" name="LCHARG"> T  </i>
   <i type="logical" name="LPARD"> F  </i>
   <i type="logical" name="LVTOT"> F  </i>
   <i type="logical" name="LVHAR"> F  </i>
   <i type="logical" name="LELF"> F  </i>
   <i type="logical" name="LOPTICS"> F  </i>
   <v name="STM">      0.00000000      0.00000000      0.00000000      0.00000000      0.00000000      0.00000000      0.00000000</v>
  </separator>
  <separator name="performance" >
   <i type="int" name="NPAR">     1</i>
   <i type="int" name="NSIM">     4</i>
   <i type="int" name="NBLK">    -1</i>
   <i type="logical" name="LPLANE"> T  </i>
   <i type="logical" name="LSCALAPACK"> F  </i>
   <i type="logical" name="LSCAAWARE"> F  </i>
   <i type="logical" name="LSCALU"> F  </i>
   <i type="logical" name="LASYNC"> F  </i>
   <i type="logical" name="LORBITALREAL"> F  </i>
  </separator>
  <separator name="miscellaneous" >
   <i type="int" name="IDIOT">     3</i>
   <i type="logical" name="LMUSIC"> F  </i>
   <v name="POMASS">    106.42000000</v>
   <v name="DARWINR">      0.00000000</v>
   <v name="DARWINV">      1.00000000</v>
   <i type="logical" name="LCORR"> T  </i>
  </separator>
  <i type="logical" name="GGA_COMPAT"> T  </i>
  <i type="logical" name="LBERRY"> F  </i>
  <i type="int" name="ICORELEVEL">     0</i>
  <i type="logical" name="LDAU"> F  </i>
  <i type="int" name="I_CONSTRAINED_M">     0</i>
  <separator name="electronic exchange-correlation" >
   <i type="string" name="GGA">--</i>
   <i type="int" name="VOSKOWN">     0</i>
   <i type="logical" name="LHFCALC"> F  </i>
   <i type="string" name="PRECFOCK"></i>
   <i type="logical" name="LSYMGRAD"> F  </i>
   <i type="logical" name="LHFONE"> F  </i>
   <i type="logical" name="LRHFCALC"> F  </i>
   <i type="logical" name="LTHOMAS"> F  </i>
   <i type="logical" name="LMODELHF"> F  </i>
   <i name="ENCUT4O">     -1.00000000</i>
   <i type="int" name="EXXOEP">     0</i>
   <i type="int" name="FOURORBIT">     0</i>
   <i name="AEXX">      0.00000000</i>
   <i name="HFALPHA">      0.00000000</i>
   <i name="MCALPHA">      0.00000000</i>
   <i name="ALDAX">      1.00000000</i>
   <i name="AGGAX">      1.00000000</i>
   <i name="ALDAC">      1.00000000</i>
   <i name="AGGAC">      1.00000000</i>
   <i type="int" name="NKREDX">     1</i>
   <i type="int" name="NKREDY">     1</i>
   <i type="int" name="NKREDZ">     1</i>
   <i type="logical" name="SHIFTRED"> F  </i>
   <i type="logical" name="ODDONLY"> F  </i>
   <i type="logical" name="EVENONLY"> F  </i>
   <i type="int" name="LMAXFOCK">     0</i>
   <i type="int" name="NMAXFOCKAE">     0</i>
   <i type="logical" name="LFOCKAEDFT"> F  </i>
   <i name="HFSCREEN">      0.00000000</i>
   <i name="HFSCREENC">      0.00000000</i>
   <i type="int" name="NBANDSGWLOW">     0</i>
  </separator>
  <separator name="vdW DFT" >
   <i type="logical" name="LUSE_VDW"> F  </i>
   <i name="Zab_VDW">     -0.84910000</i>
   <i name="PARAM1">      0.12340000</i>
   <i name="PARAM2">      1.00000000</i>
   <i name="PARAM3">      0.00000000</i>
  </separator>
  <separator name="model GW" >
   <i type="int" name="MODEL_GW">     0</i>
   <i name="MODEL_EPS0">      9.37002130</i>
   <i name="MODEL_ALPHA">      1.00000000</i>
  </separator>
  <separator name="linear response parameters" >
   <i type="logical" name="LEPSILON"> F  </i>
   <i type="logical" name="LRPA"> F  </i>
   <i type="logical" name="LNABLA"> F  </i>
   <i type="logical" name="LVEL"> F  </i>
   <i type="int" name="KINTER">     0</i>
   <i name="CSHIFT">      0.10000000</i>
   <i name="OMEGAMAX">     -1.00000000</i>
   <i name="DEG_THRESHOLD">      0.00200000</i>
  </separator>
  <separator name="orbital magnetization" >
   <i type="logical" name="NUCIND"> F  </i>
   <v name="MAGPOS">      0.00000000      0.00000000      0.00000000</v>
   <i type="logical" name="LNICSALL"> T  </i>
   <i type="logical" name="ORBITALMAG"> F  </i>
   <i type="logical" name="LMAGBLOCH"> F  </i>
   <i type="logical" name="LCHIMAG"> F  </i>
   <i type="logical" name="LGAUGE"> T  </i>
   <i type="int" name="MAGATOM">     0</i>
   <v name="MAGDIPOL">      0.00000000      0.00000000      0.00000000</v>
   <v name="AVECCONST">      0.00000000      0.00000000      0.00000000</v>
  </separator>
  <separator name="response functions" >
   <i type="logical" name="LADDER"> F  </i>
   <i type="logical" name="LFXC"> F  </i>
   <i type="logical" name="LHARTREE"> T  </i>
   <i type="int" name="IBSE">     0</i>
   <i type="logical" name="LTCTE"> F  </i>
   <i type="logical" name="LTETE"> F  </i>
   <i type="logical" name="LTRIPLET"> F  </i>
   <i type="logical" name="LFXCEPS"> F  </i>
   <i type="logical" name="LFXHEG"> F  </i>
   <i type="logical" name="L2ORDER"> F  </i>
   <i type="logical" name="LUSEW"> F  </i>
   <i name="ENCUTGW">     -2.00000000</i>
   <i name="ENCUTGWSOFT">     -2.00000000</i>
   <i name="ENCUTLF">     -1.00000000</i>
   <i type="int" name="LMAXMP2">    -1</i>
   <i name="SCISSOR">      0.00000000</i>
   <i type="int" name="NOMEGA">     0</i>
   <i type="int" name="NOMEGAR">     0</i>
   <i type="int" name="NBANDSGW">    -1</i>
   <i type="int" name="NBANDSO">    -1</i>
   <i type="int" name="NBANDSV">    -1</i>
   <i type="int" name="NELM">     1</i>
   <i type="int" name="DIM">     3</i>
   <i type="int" name="ANTIRES">     0</i>
   <i name="OMEGAMAX">    -30.00000000</i>
   <i name="OMEGAMIN">    -30.00000000</i>
   <i name="OMEGATL">   -200.00000000</i>
   <i type="int" name="OMEGAGRID">     0</i>
   <i name="CSHIFT">     -0.10000000</i>
   <i type="logical" name="SELFENERGY"> F  </i>
   <i type="logical" name="LSPECTRAL"> F  </i>
   <i type="logical" name="ODDONLYGW"> F  </i>
   <i type="logical" name="EVENONLYGW"> F  </i>
   <i type="int" name="NKREDLFX">     1</i>
   <i type="int" name="NKREDLFY">     1</i>
   <i type="int" name="NKREDLFZ">     1</i>
   <i type="int" name="MAXMEM">  1800</i>
   <i type="int" name="TELESCOPE">     0</i>
   <i type="int" name="TAUPAR">     1</i>
  </separator>
  <separator name="External order field" >
   <i name="OFIELD_KAPPA">      0.00000000</i>
   <v name="OFIELD_K">      0.00000000      0.00000000      0.00000000</v>
   <i name="OFIELD_Q6_NEAR">      0.00000000</i>
   <i name="OFIELD_Q6_FAR">      0.00000000</i>
   <i name="OFIELD_A">      0.00000000</i>
  </separator>
 </parameters>
 <atominfo>
  <atoms>       1 </atoms>
  <types>       1 </types>
  <array name="atoms" >
   <dimension dim="1">ion</dimension>
   <field type="string">element</field>
   <field type="int">atomtype</field>
   <set>
    <rc><c>Pd</c><c>   1</c></rc>
   </set>
  </array>
  <array name="atomtypes" >
   <dimension dim="1">type</dimension>
   <field type="int">atomspertype</field>
   <field type="string">element</field>
   <field>mass</field>
   <field>valence</field>
   <field type="string">pseudopotential</field>
   <set>
    <rc><c>   1</c><c>Pd</c><c>    106.42000000</c><c>     10.00000000</c><c>  PAW_PBE Pd 04Jan2005                  </c></rc>
   </set>
  </array>
 </atominfo>
 <structure name="initialpos" >
  <crystal>
   <varray name="basis" >
    <v>       2.80565829       0.00000000       0.00000000 </v>
    <v>       1.40282914       2.42977135       0.00000000 </v>
    <v>       1.40282914       0.80992378       2.29081040 </v>
   </varray>
   <i name="volume">     15.61670217 </i>
   <varray name="rec_basis" >
    <v>       0.35642259      -0.20578068      -0.14550891 </v>
    <v>       0.00000000       0.41156136      -0.14550891 </v>
    <v>       0.00000000       0.00000000       0.43652674 </v>
   </varray>
  </crystal>
  <varray name="positions" >
   <v>       0.00000000       0.00000000       0.00000000 </v>
  </varray>
 </structure>
 <calculation>
  <scstep>
   <time name="dav">    0.61    0.61</time>
   <time name="total">    0.64    0.65</time>
   <energy>
    <i name="alphaZ">     41.73430746 </i>
    <i name="ewald">   -831.96025565 </i>
    <i name="hartreedc">   -129.33084488 </i>
    <i name="XCdc">    -29.30372314 </i>
    <i name="pawpsdc">    806.73831454 </i>
    <i name="pawaedc">   -744.51602449 </i>
    <i name="eentropy">     -0.00053607 </i>
    <i name="bandstr">    104.17476886 </i>
    <i name="atom">    809.72612850 </i>
    <i name="e_fr_energy">     27.26213513 </i>
    <i name="e_wo_entrp">     27.26267120 </i>
    <i name="e_0_energy">     27.26231382 </i>
   </energy>
  </scstep>
  <scstep>
   <time name="dav">    0.64    0.66</time>
   <time name="total">    0.65    0.70</time>
   <energy>
    <i name="e_fr_energy">     -5.17467675 </i>
    <i name="e_wo_entrp">     -5.16700036 </i>
    <i name="e_0_energy">     -5.17211796 </i>
   </energy>
  </scstep>
  <scstep>
   <time name="dav">    0.72    0.72</time>
   <time name="total">    0.72    0.73</time>
   <energy>
    <i name="e_fr_energy">     -5.47246967 </i>
    <i name="e_wo_entrp">     -5.46360923 </i>
    <i name="e_0_energy">     -5.46951619 </i>
   </energy>
  </scstep>
  <scstep>
   <time name="dav">    0.71    0.72</time>
   <time name="total">    0.72    0.75</time>
   <energy>
    <i name="e_fr_energy">     -5.47389585 </i>
    <i name="e_wo_entrp">     -5.46503240 </i>
    <i name="e_0_energy">     -5.47094137 </i>
   </energy>
  </scstep>
  <scstep>
   <time name="dav">    0.72    0.72</time>
   <time name="total">    0.78    0.79</time>
   <energy>
    <i name="e_fr_energy">     -5.47390962 </i>
    <i name="e_wo_entrp">     -5.46504611 </i>
    <i name="e_0_energy">     -5.47095511 </i>
   </energy>
  </scstep>
  <scstep>
   <time name="dav">    0.63    0.63</time>
   <time name="total">    0.73    0.82</time>
   <energy>
    <i name="e_fr_energy">     -5.22381584 </i>
    <i name="e_wo_entrp">     -5.21797675 </i>
    <i name="e_0_energy">     -5.22186947 </i>
   </energy>
  </scstep>
  <scstep>
   <time name="dav">    0.65    0.65</time>
   <time name="total">    0.75    0.88</time>
   <energy>
    <i name="e_fr_energy">     -5.21671059 </i>
    <i name="e_wo_entrp">     -5.21088782 </i>
    <i name="e_0_energy">     -5.21476966 </i>
   </energy>
  </scstep>
  <scstep>
   <time name="dav">    0.63    0.63</time>
   <time name="total">    0.73    0.80</time>
   <energy>
    <i name="e_fr_energy">     -5.21370303 </i>
    <i name="e_wo_entrp">     -5.20790868 </i>
    <i name="e_0_energy">     -5.21177158 </i>
   </energy>
  </scstep>
  <scstep>
   <time name="dav">    0.41    0.41</time>
   <time name="total">    0.45    0.46</time>
   <energy>
    <i name="alphaZ">     41.73430746 </i>
    <i name="ewald">   -831.96025565 </i>
    <i name="hartreedc">   -119.69384119 </i>
    <i name="XCdc">    -29.58245332 </i>
    <i name="pawpsdc">    943.52212596 </i>
    <i name="pawaedc">   -883.70953706 </i>
    <i name="eentropy">     -0.00579420 </i>
    <i name="bandstr">     64.75561102 </i>
    <i name="atom">    809.72612850 </i>
    <i name="e_fr_energy">     -5.21370847 </i>
    <i name="e_wo_entrp">     -5.20791427 </i>
    <i name="e_0_energy">     -5.21177707 </i>
   </energy>
  </scstep>
  <structure>
   <crystal>
    <varray name="basis" >
     <v>       2.80565829       0.00000000       0.00000000 </v>
     <v>       1.40282914       2.42977135       0.00000000 </v>
     <v>       1.40282914       0.80992378       2.29081040 </v>
    </varray>
    <i name="volume">     15.61670217 </i>
    <varray name="rec_basis" >
     <v>       0.35642259      -0.20578068      -0.14550891 </v>
     <v>       0.00000000       0.41156136      -0.14550891 </v>
     <v>       0.00000000       0.00000000       0.43652674 </v>
    </varray>
   </crystal>
   <varray name="positions" >
    <v>       0.00000000       0.00000000       0.00000000 </v>
   </varray>
  </structure>
  <varray name="forces" >
   <v>       0.00000000       0.00000000       0.00000000 </v>
  </varray>
  <varray name="stress" >
   <v>     -42.00536528       0.00000000       0.00000000 </v>
   <v>       0.00000000     -42.00536528       0.00000000 </v>
   <v>       0.00000000       0.00000000     -42.00536528 </v>
  </varray>
  <energy>
   <i name="e_fr_energy">     -5.21370847 </i>
   <i name="e_wo_entrp">     -5.21177707 </i>
   <i name="e_0_energy">     -0.00579420 </i>
  </energy>
  <time name="totalsc">    6.71    7.19</time>
  <eigenvalues>
   <array>
    <dimension dim="1">band</dimension>
    <dimension dim="2">kpoint</dimension>
    <dimension dim="3">spin</dimension>
    <field>eigene</field>
    <field>occ</field>
    <set>
     <set comment="spin 1">
      <set comment="kpoint 1">
       <r>    2.2771    1.0000 </r>
       <r>    6.2243    1.0000 </r>
       <r>    6.3146    1.0000 </r>
       <r>    6.3146    1.0000 </r>
       <r>    7.7189    1.0000 </r>
       <r>    7.7189    1.0000 </r>
       <r>   26.1274    0.0000 </r>
       <r>   29.5192    0.0000 </r>
       <r>   30.5911    0.0000 </r>
      </set>
      <set comment="kpoint 2">
       <r>    2.9512    1.0000 </r>
       <r>    6.0102    1.0000 </r>
       <r>    6.5099    1.0000 </r>
       <r>    6.5333    1.0000 </r>
       <r>    7.5189    1.0000 </r>
       <r>    7.8267    1.0000 </r>
       <r>   26.2420    0.0000 </r>
       <r>   27.2227    0.0000 </r>
       <r>   30.1303    0.0000 </r>
      </set>
      <set comment="kpoint 3">
       <r>    4.0129    1.0000 </r>
       <r>    6.2229    1.0000 </r>
       <r>    6.5508    1.0000 </r>
       <r>    6.5845    1.0000 </r>
       <r>    7.7385    1.0000 </r>
       <r>    8.3359    1.0006 </r>
       <r>   22.2130    0.0000 </r>
       <r>   26.6530    0.0000 </r>
       <r>   29.9979    0.0000 </r>
      </set>
      <set comment="kpoint 4">
       <r>    4.1411    1.0000 </r>
       <r>    6.2644    1.0000 </r>
       <r>    6.3711    1.0000 </r>
       <r>    7.8400    1.0000 </r>
       <r>    8.4484    1.0058 </r>
       <r>    9.5101    0.0000 </r>
       <r>   17.7656    0.0000 </r>
       <r>   25.7100    0.0000 </r>
       <r>   28.7820    0.0000 </r>
      </set>
      <set comment="kpoint 5">
       <r>    4.0818    1.0000 </r>
       <r>    6.1641    1.0000 </r>
       <r>    6.3130    1.0000 </r>
       <r>    8.2585    1.0001 </r>
       <r>    8.8385    0.6205 </r>
       <r>   10.5564    0.0000 </r>
       <r>   15.8342    0.0000 </r>
       <r>   25.4144    0.0000 </r>
       <r>   28.8690    0.0000 </r>
      </set>
      <set comment="kpoint 6">
       <r>    4.1620    1.0000 </r>
       <r>    6.3139    1.0000 </r>
       <r>    6.4691    1.0000 </r>
       <r>    7.2127    1.0000 </r>
       <r>    8.5662    1.0274 </r>
       <r>    8.7683    0.8674 </r>
       <r>   19.1583    0.0000 </r>
       <r>   26.0790    0.0000 </r>
       <r>   29.3088    0.0000 </r>
      </set>
      <set comment="kpoint 7">
       <r>    3.7210    1.0000 </r>
       <r>    5.9822    1.0000 </r>
       <r>    6.5781    1.0000 </r>
       <r>    6.6286    1.0000 </r>
       <r>    7.6775    1.0000 </r>
       <r>    8.0115    1.0000 </r>
       <r>   23.7396    0.0000 </r>
       <r>   27.0668    0.0000 </r>
       <r>   30.1123    0.0000 </r>
      </set>
      <set comment="kpoint 8">
       <r>    2.6263    1.0000 </r>
       <r>    6.0635    1.0000 </r>
       <r>    6.4538    1.0000 </r>
       <r>    6.4593    1.0000 </r>
       <r>    7.5456    1.0000 </r>
       <r>    7.8047    1.0000 </r>
       <r>   26.4024    0.0000 </r>
       <r>   28.3596    0.0000 </r>
       <r>   30.1987    0.0000 </r>
      </set>
      <set comment="kpoint 9">
       <r>    3.2707    1.0000 </r>
       <r>    5.7542    1.0000 </r>
       <r>    6.7137    1.0000 </r>
       <r>    6.7388    1.0000 </r>
       <r>    7.3145    1.0000 </r>
       <r>    7.9648    1.0000 </r>
       <r>   26.6380    0.0000 </r>
       <r>   27.4629    0.0000 </r>
       <r>   29.1091    0.0000 </r>
      </set>
      <set comment="kpoint 10">
       <r>    4.2509    1.0000 </r>
       <r>    5.4813    1.0000 </r>
       <r>    6.5311    1.0000 </r>
       <r>    7.0845    1.0000 </r>
       <r>    7.6625    1.0000 </r>
       <r>    8.4518    1.0062 </r>
       <r>   24.1699    0.0000 </r>
       <r>   26.0893    0.0000 </r>
       <r>   28.5168    0.0000 </r>
      </set>
      <set comment="kpoint 11">
       <r>    4.5957    1.0000 </r>
       <r>    5.9709    1.0000 </r>
       <r>    6.2995    1.0000 </r>
       <r>    6.9548    1.0000 </r>
       <r>    8.5376    1.0208 </r>
       <r>   10.0278    0.0000 </r>
       <r>   19.4978    0.0000 </r>
       <r>   25.4620    0.0000 </r>
       <r>   26.6987    0.0000 </r>
      </set>
      <set comment="kpoint 12">
       <r>    4.5368    1.0000 </r>
       <r>    5.8145    1.0000 </r>
       <r>    6.7440    1.0000 </r>
       <r>    7.0856    1.0000 </r>
       <r>    8.7768    0.8429 </r>
       <r>   12.3946    0.0000 </r>
       <r>   15.8850    0.0000 </r>
       <r>   24.8754    0.0000 </r>
       <r>   26.1677    0.0000 </r>
      </set>
      <set comment="kpoint 13">
       <r>    4.6451    1.0000 </r>
       <r>    5.9478    1.0000 </r>
       <r>    6.6319    1.0000 </r>
       <r>    6.8901    1.0000 </r>
       <r>    8.3460    1.0007 </r>
       <r>   11.0006    0.0000 </r>
       <r>   18.1211    0.0000 </r>
       <r>   24.4159    0.0000 </r>
       <r>   26.9651    0.0000 </r>
      </set>
      <set comment="kpoint 14">
       <r>    4.5977    1.0000 </r>
       <r>    5.6672    1.0000 </r>
       <r>    6.3514    1.0000 </r>
       <r>    7.0434    1.0000 </r>
       <r>    7.5170    1.0000 </r>
       <r>    9.1238   -0.0350 </r>
       <r>   22.6404    0.0000 </r>
       <r>   24.7498    0.0000 </r>
       <r>   28.7243    0.0000 </r>
      </set>
      <set comment="kpoint 15">
       <r>    3.5466    1.0000 </r>
       <r>    5.7934    1.0000 </r>
       <r>    6.6255    1.0000 </r>
       <r>    6.7373    1.0000 </r>
       <r>    7.4064    1.0000 </r>
       <r>    8.0657    1.0000 </r>
       <r>   25.3422    0.0000 </r>
       <r>   26.7450    0.0000 </r>
       <r>   29.6452    0.0000 </r>
      </set>
      <set comment="kpoint 16">
       <r>    4.4710    1.0000 </r>
       <r>    4.9842    1.0000 </r>
       <r>    7.1394    1.0000 </r>
       <r>    7.6191    1.0000 </r>
       <r>    8.1819    1.0000 </r>
       <r>    8.4226    1.0036 </r>
       <r>   24.5097    0.0000 </r>
       <r>   25.5965    0.0000 </r>
       <r>   26.1579    0.0000 </r>
      </set>
      <set comment="kpoint 17">
       <r>    4.5925    1.0000 </r>
       <r>    4.8446    1.0000 </r>
       <r>    7.0493    1.0000 </r>
       <r>    8.0029    1.0000 </r>
       <r>    8.6061    1.0345 </r>
       <r>   10.2902    0.0000 </r>
       <r>   21.6713    0.0000 </r>
       <r>   23.5695    0.0000 </r>
       <r>   23.9111    0.0000 </r>
      </set>
      <set comment="kpoint 18">
       <r>    4.6912    1.0000 </r>
       <r>    5.2408    1.0000 </r>
       <r>    6.6939    1.0000 </r>
       <r>    7.6690    1.0000 </r>
       <r>    8.8473    0.5844 </r>
       <r>   13.5316    0.0000 </r>
       <r>   17.3987    0.0000 </r>
       <r>   21.8264    0.0000 </r>
       <r>   23.9621    0.0000 </r>
      </set>
      <set comment="kpoint 19">
       <r>    5.0991    1.0000 </r>
       <r>    5.6301    1.0000 </r>
       <r>    6.1760    1.0000 </r>
       <r>    7.4337    1.0000 </r>
       <r>    8.3852    1.0017 </r>
       <r>   13.7321    0.0000 </r>
       <r>   17.7557    0.0000 </r>
       <r>   20.4055    0.0000 </r>
       <r>   25.5796    0.0000 </r>
      </set>
      <set comment="kpoint 20">
       <r>    5.1670    1.0000 </r>
       <r>    5.7989    1.0000 </r>
       <r>    5.9894    1.0000 </r>
       <r>    7.2197    1.0000 </r>
       <r>    7.9034    1.0000 </r>
       <r>   11.0809    0.0000 </r>
       <r>   20.0657    0.0000 </r>
       <r>   22.2747    0.0000 </r>
       <r>   27.1332    0.0000 </r>
      </set>
      <set comment="kpoint 21">
       <r>    4.3351    1.0000 </r>
       <r>    6.2724    1.0000 </r>
       <r>    6.3849    1.0000 </r>
       <r>    6.6977    1.0000 </r>
       <r>    8.0587    1.0000 </r>
       <r>    8.9633    0.1412 </r>
       <r>   20.8049    0.0000 </r>
       <r>   26.1328    0.0000 </r>
       <r>   28.5095    0.0000 </r>
      </set>
      <set comment="kpoint 22">
       <r>    4.1628    1.0000 </r>
       <r>    4.3957    1.0000 </r>
       <r>    8.4601    1.0071 </r>
       <r>    8.5200    1.0170 </r>
       <r>    8.8925    0.3942 </r>
       <r>   10.9275    0.0000 </r>
       <r>   21.1962    0.0000 </r>
       <r>   21.9783    0.0000 </r>
       <r>   22.6943    0.0000 </r>
      </set>
      <set comment="kpoint 23">
       <r>    4.2140    1.0000 </r>
       <r>    4.4728    1.0000 </r>
       <r>    7.9985    1.0000 </r>
       <r>    8.4933    1.0119 </r>
       <r>    9.0448   -0.0092 </r>
       <r>   13.3596    0.0000 </r>
       <r>   19.2420    0.0000 </r>
       <r>   20.2535    0.0000 </r>
       <r>   21.9312    0.0000 </r>
      </set>
      <set comment="kpoint 24">
       <r>    4.6193    1.0000 </r>
       <r>    5.1097    1.0000 </r>
       <r>    6.8971    1.0000 </r>
       <r>    7.9149    1.0000 </r>
       <r>    8.8016    0.7621 </r>
       <r>   15.4039    0.0000 </r>
       <r>   16.8646    0.0000 </r>
       <r>   19.6335    0.0000 </r>
       <r>   23.5682    0.0000 </r>
      </set>
      <set comment="kpoint 25">
       <r>    4.8727    1.0000 </r>
       <r>    5.6045    1.0000 </r>
       <r>    6.6088    1.0000 </r>
       <r>    7.1030    1.0000 </r>
       <r>    8.6219    1.0355 </r>
       <r>   13.5624    0.0000 </r>
       <r>   16.0958    0.0000 </r>
       <r>   22.7954    0.0000 </r>
       <r>   25.6947    0.0000 </r>
      </set>
      <set comment="kpoint 26">
       <r>    4.2733    1.0000 </r>
       <r>    6.0714    1.0000 </r>
       <r>    6.4839    1.0000 </r>
       <r>    7.5522    1.0000 </r>
       <r>    8.7124    0.9833 </r>
       <r>   10.8072    0.0000 </r>
       <r>   16.6390    0.0000 </r>
       <r>   25.4810    0.0000 </r>
       <r>   27.6238    0.0000 </r>
      </set>
      <set comment="kpoint 27">
       <r>    4.0096    1.0000 </r>
       <r>    4.2652    1.0000 </r>
       <r>    8.7184    0.9745 </r>
       <r>    8.8066    0.7444 </r>
       <r>    9.0641   -0.0234 </r>
       <r>   12.3214    0.0000 </r>
       <r>   19.3292    0.0000 </r>
       <r>   21.3032    0.0000 </r>
       <r>   22.0102    0.0000 </r>
      </set>
      <set comment="kpoint 28">
       <r>    4.3669    1.0000 </r>
       <r>    4.5990    1.0000 </r>
       <r>    7.6051    1.0000 </r>
       <r>    8.3780    1.0015 </r>
       <r>    8.8657    0.5070 </r>
       <r>   11.8950    0.0000 </r>
       <r>   20.5481    0.0000 </r>
       <r>   21.4689    0.0000 </r>
       <r>   22.5214    0.0000 </r>
      </set>
      <set comment="kpoint 29">
       <r>    4.7162    1.0000 </r>
       <r>    5.5420    1.0000 </r>
       <r>    6.4446    1.0000 </r>
       <r>    7.3070    1.0000 </r>
       <r>    8.7940    0.7883 </r>
       <r>   11.6145    0.0000 </r>
       <r>   18.3258    0.0000 </r>
       <r>   24.2817    0.0000 </r>
       <r>   24.7459    0.0000 </r>
      </set>
      <set comment="kpoint 30">
       <r>    4.3938    1.0000 </r>
       <r>    4.6447    1.0000 </r>
       <r>    7.8444    1.0000 </r>
       <r>    8.1171    1.0000 </r>
       <r>    8.6655    1.0260 </r>
       <r>    9.3472   -0.0018 </r>
       <r>   23.0892    0.0000 </r>
       <r>   23.7858    0.0000 </r>
       <r>   23.9475    0.0000 </r>
      </set>
      <set comment="kpoint 31">
       <r>    4.6723    1.0000 </r>
       <r>    5.1556    1.0000 </r>
       <r>    6.5748    1.0000 </r>
       <r>    7.5235    1.0000 </r>
       <r>    8.1982    1.0000 </r>
       <r>    9.1002   -0.0348 </r>
       <r>   22.9233    0.0000 </r>
       <r>   24.8967    0.0000 </r>
       <r>   26.3907    0.0000 </r>
      </set>
      <set comment="kpoint 32">
       <r>    4.0313    1.0000 </r>
       <r>    5.3718    1.0000 </r>
       <r>    6.8342    1.0000 </r>
       <r>    7.1375    1.0000 </r>
       <r>    7.4844    1.0000 </r>
       <r>    8.1798    1.0000 </r>
       <r>   25.8180    0.0000 </r>
       <r>   27.4258    0.0000 </r>
       <r>   27.4593    0.0000 </r>
      </set>
      <set comment="kpoint 33">
       <r>    3.2288    1.0000 </r>
       <r>    6.0522    1.0000 </r>
       <r>    6.5336    1.0000 </r>
       <r>    6.5336    1.0000 </r>
       <r>    7.7066    1.0000 </r>
       <r>    7.7066    1.0000 </r>
       <r>   25.0889    0.0000 </r>
       <r>   27.1419    0.0000 </r>
       <r>   31.4745    0.0000 </r>
      </set>
      <set comment="kpoint 34">
       <r>    4.0366    1.0000 </r>
       <r>    5.7820    1.0000 </r>
       <r>    6.5653    1.0000 </r>
       <r>    6.8251    1.0000 </r>
       <r>    7.3274    1.0000 </r>
       <r>    8.4814    1.0100 </r>
       <r>   23.9452    0.0000 </r>
       <r>   25.8229    0.0000 </r>
       <r>   29.9665    0.0000 </r>
      </set>
      <set comment="kpoint 35">
       <r>    4.9232    1.0000 </r>
       <r>    5.8075    1.0000 </r>
       <r>    6.2780    1.0000 </r>
       <r>    6.9903    1.0000 </r>
       <r>    7.5545    1.0000 </r>
       <r>    9.9853    0.0000 </r>
       <r>   21.2809    0.0000 </r>
       <r>   23.4578    0.0000 </r>
       <r>   28.4369    0.0000 </r>
      </set>
      <set comment="kpoint 36">
       <r>    4.7325    1.0000 </r>
       <r>    5.8183    1.0000 </r>
       <r>    6.8415    1.0000 </r>
       <r>    6.8421    1.0000 </r>
       <r>    8.4088    1.0028 </r>
       <r>   12.1705    0.0000 </r>
       <r>   16.9681    0.0000 </r>
       <r>   23.4794    0.0000 </r>
       <r>   27.4463    0.0000 </r>
      </set>
      <set comment="kpoint 37">
       <r>    4.5900    1.0000 </r>
       <r>    5.7559    1.0000 </r>
       <r>    6.7510    1.0000 </r>
       <r>    6.9251    1.0000 </r>
       <r>    8.8812    0.4416 </r>
       <r>   12.0205    0.0000 </r>
       <r>   16.7961    0.0000 </r>
       <r>   24.4987    0.0000 </r>
       <r>   26.6366    0.0000 </r>
      </set>
      <set comment="kpoint 38">
       <r>    4.5998    1.0000 </r>
       <r>    5.5344    1.0000 </r>
       <r>    6.4295    1.0000 </r>
       <r>    7.1331    1.0000 </r>
       <r>    8.6653    1.0261 </r>
       <r>    9.2629   -0.0086 </r>
       <r>   21.1134    0.0000 </r>
       <r>   26.1105    0.0000 </r>
       <r>   26.4463    0.0000 </r>
      </set>
      <set comment="kpoint 39">
       <r>    4.2705    1.0000 </r>
       <r>    5.8066    1.0000 </r>
       <r>    6.4416    1.0000 </r>
       <r>    6.8277    1.0000 </r>
       <r>    8.1857    1.0000 </r>
       <r>    8.3548    1.0009 </r>
       <r>   22.4165    0.0000 </r>
       <r>   26.9056    0.0000 </r>
       <r>   28.2505    0.0000 </r>
      </set>
      <set comment="kpoint 40">
       <r>    4.9633    1.0000 </r>
       <r>    5.5121    1.0000 </r>
       <r>    6.0898    1.0000 </r>
       <r>    7.4177    1.0000 </r>
       <r>    7.9855    1.0000 </r>
       <r>   10.0467    0.0000 </r>
       <r>   21.4036    0.0000 </r>
       <r>   23.5831    0.0000 </r>
       <r>   26.6491    0.0000 </r>
      </set>
      <set comment="kpoint 41">
       <r>    5.3213    1.0000 </r>
       <r>    5.5010    1.0000 </r>
       <r>    5.8842    1.0000 </r>
       <r>    7.5422    1.0000 </r>
       <r>    8.3498    1.0008 </r>
       <r>   12.5249    0.0000 </r>
       <r>   18.9845    0.0000 </r>
       <r>   21.3027    0.0000 </r>
       <r>   24.7902    0.0000 </r>
      </set>
      <set comment="kpoint 42">
       <r>    5.0528    1.0000 </r>
       <r>    5.3956    1.0000 </r>
       <r>    6.2937    1.0000 </r>
       <r>    7.4482    1.0000 </r>
       <r>    8.7429    0.9296 </r>
       <r>   14.4774    0.0000 </r>
       <r>   16.2698    0.0000 </r>
       <r>   22.3300    0.0000 </r>
       <r>   23.2127    0.0000 </r>
      </set>
      <set comment="kpoint 43">
       <r>    4.9284    1.0000 </r>
       <r>    5.2277    1.0000 </r>
       <r>    6.2940    1.0000 </r>
       <r>    7.8278    1.0000 </r>
       <r>    8.4325    1.0044 </r>
       <r>   11.3900    0.0000 </r>
       <r>   20.2620    0.0000 </r>
       <r>   22.4674    0.0000 </r>
       <r>   24.2206    0.0000 </r>
      </set>
      <set comment="kpoint 44">
       <r>    4.5945    1.0000 </r>
       <r>    5.1635    1.0000 </r>
       <r>    6.8199    1.0000 </r>
       <r>    7.5176    1.0000 </r>
       <r>    8.8787    0.4519 </r>
       <r>   10.7731    0.0000 </r>
       <r>   19.8831    0.0000 </r>
       <r>   24.0170    0.0000 </r>
       <r>   24.9424    0.0000 </r>
      </set>
      <set comment="kpoint 45">
       <r>    4.7262    1.0000 </r>
       <r>    4.9794    1.0000 </r>
       <r>    6.7106    1.0000 </r>
       <r>    8.0670    1.0000 </r>
       <r>    8.7943    0.7875 </r>
       <r>   13.1026    0.0000 </r>
       <r>   19.3290    0.0000 </r>
       <r>   21.3694    0.0000 </r>
       <r>   21.9657    0.0000 </r>
      </set>
      <set comment="kpoint 46">
       <r>    4.9102    1.0000 </r>
       <r>    5.4189    1.0000 </r>
       <r>    6.1544    1.0000 </r>
       <r>    7.7220    1.0000 </r>
       <r>    9.0358   -0.0001 </r>
       <r>   16.2284    0.0000 </r>
       <r>   17.5903    0.0000 </r>
       <r>   19.5374    0.0000 </r>
       <r>   20.6997    0.0000 </r>
      </set>
      <set comment="kpoint 47">
       <r>    5.1034    1.0000 </r>
       <r>    5.4273    1.0000 </r>
       <r>    6.0045    1.0000 </r>
       <r>    7.7081    1.0000 </r>
       <r>    8.7637    0.8800 </r>
       <r>   14.3253    0.0000 </r>
       <r>   18.1064    0.0000 </r>
       <r>   20.5844    0.0000 </r>
       <r>   22.2821    0.0000 </r>
      </set>
      <set comment="kpoint 48">
       <r>    4.3383    1.0000 </r>
       <r>    4.7216    1.0000 </r>
       <r>    7.6098    1.0000 </r>
       <r>    8.2398    1.0000 </r>
       <r>    8.9017    0.3571 </r>
       <r>   14.1808    0.0000 </r>
       <r>   18.2756    0.0000 </r>
       <r>   19.5663    0.0000 </r>
       <r>   23.3089    0.0000 </r>
      </set>
      <set comment="kpoint 49">
       <r>    4.5684    1.0000 </r>
       <r>    4.8698    1.0000 </r>
       <r>    7.0340    1.0000 </r>
       <r>    8.0869    1.0000 </r>
       <r>    9.0377   -0.0021 </r>
       <r>   14.7630    0.0000 </r>
       <r>   18.7154    0.0000 </r>
       <r>   19.6004    0.0000 </r>
       <r>   21.2873    0.0000 </r>
      </set>
      <set comment="kpoint 50">
       <r>    4.4529    1.0000 </r>
       <r>    4.8672    1.0000 </r>
       <r>    7.3001    1.0000 </r>
       <r>    7.9237    1.0000 </r>
       <r>    8.9507    0.1789 </r>
       <r>   12.5589    0.0000 </r>
       <r>   18.8762    0.0000 </r>
       <r>   21.5497    0.0000 </r>
       <r>   23.8684    0.0000 </r>
      </set>
      <set comment="kpoint 51">
       <r>    4.0420    1.0000 </r>
       <r>    6.4540    1.0000 </r>
       <r>    6.4540    1.0000 </r>
       <r>    6.9655    1.0000 </r>
       <r>    8.1825    1.0000 </r>
       <r>    8.1825    1.0000 </r>
       <r>   20.5990    0.0000 </r>
       <r>   26.4100    0.0000 </r>
       <r>   31.2128    0.0000 </r>
      </set>
      <set comment="kpoint 52">
       <r>    4.4594    1.0000 </r>
       <r>    6.1869    1.0000 </r>
       <r>    6.6291    1.0000 </r>
       <r>    6.7926    1.0000 </r>
       <r>    8.0186    1.0000 </r>
       <r>    9.8266    0.0000 </r>
       <r>   19.3781    0.0000 </r>
       <r>   25.2523    0.0000 </r>
       <r>   28.0197    0.0000 </r>
      </set>
      <set comment="kpoint 53">
       <r>    5.1641    1.0000 </r>
       <r>    5.7808    1.0000 </r>
       <r>    6.1771    1.0000 </r>
       <r>    7.1919    1.0000 </r>
       <r>    8.0573    1.0000 </r>
       <r>   12.2707    0.0000 </r>
       <r>   18.8659    0.0000 </r>
       <r>   21.1758    0.0000 </r>
       <r>   27.8540    0.0000 </r>
      </set>
      <set comment="kpoint 54">
       <r>    4.7913    1.0000 </r>
       <r>    5.4491    1.0000 </r>
       <r>    6.5797    1.0000 </r>
       <r>    7.6416    1.0000 </r>
       <r>    8.5431    1.0221 </r>
       <r>   15.1036    0.0000 </r>
       <r>   16.5595    0.0000 </r>
       <r>   19.8772    0.0000 </r>
       <r>   25.5644    0.0000 </r>
      </set>
      <set comment="kpoint 55">
       <r>    4.3618    1.0000 </r>
       <r>    6.0658    1.0000 </r>
       <r>    6.6325    1.0000 </r>
       <r>    6.9673    1.0000 </r>
       <r>    8.8163    0.7083 </r>
       <r>   10.2103    0.0000 </r>
       <r>   17.8804    0.0000 </r>
       <r>   25.7709    0.0000 </r>
       <r>   27.7697    0.0000 </r>
      </set>
      <set comment="kpoint 56">
       <r>    4.8753    1.0000 </r>
       <r>    5.6209    1.0000 </r>
       <r>    6.4647    1.0000 </r>
       <r>    7.1499    1.0000 </r>
       <r>    8.6320    1.0351 </r>
       <r>   12.5854    0.0000 </r>
       <r>   17.0485    0.0000 </r>
       <r>   23.6968    0.0000 </r>
       <r>   24.8698    0.0000 </r>
      </set>
      <set comment="kpoint 57">
       <r>    5.0109    1.0000 </r>
       <r>    5.4558    1.0000 </r>
       <r>    6.1721    1.0000 </r>
       <r>    7.6380    1.0000 </r>
       <r>    8.7636    0.8803 </r>
       <r>   15.5209    0.0000 </r>
       <r>   16.8223    0.0000 </r>
       <r>   19.9480    0.0000 </r>
       <r>   22.9555    0.0000 </r>
      </set>
      <set comment="kpoint 58">
       <r>    4.7522    1.0000 </r>
       <r>    5.5230    1.0000 </r>
       <r>    6.6286    1.0000 </r>
       <r>    7.2998    1.0000 </r>
       <r>    8.7580    0.8945 </r>
       <r>   14.0025    0.0000 </r>
       <r>   16.0489    0.0000 </r>
       <r>   22.1784    0.0000 </r>
       <r>   25.9116    0.0000 </r>
      </set>
      <set comment="kpoint 59">
       <r>    4.0141    1.0000 </r>
       <r>    6.2618    1.0000 </r>
       <r>    6.2618    1.0000 </r>
       <r>    8.7438    0.9277 </r>
       <r>    8.7438    0.9277 </r>
       <r>    9.3673   -0.0012 </r>
       <r>   16.5519    0.0000 </r>
       <r>   25.4762    0.0000 </r>
       <r>   29.6344    0.0000 </r>
      </set>
      <set comment="kpoint 60">
       <r>    4.3324    1.0000 </r>
       <r>    5.9918    1.0000 </r>
       <r>    6.5170    1.0000 </r>
       <r>    7.5603    1.0000 </r>
       <r>    8.7127    0.9828 </r>
       <r>   11.6600    0.0000 </r>
       <r>   15.8673    0.0000 </r>
       <r>   25.1541    0.0000 </r>
       <r>   27.5172    0.0000 </r>
      </set>
     </set>
    </set>
   </array>
  </eigenvalues>
  <separator name="orbital magnetization" >
   <v name="MAGDIPOLOUT">      0.00000000      0.00000000      0.00000000</v>
  </separator>
  <dos>
   <i name="efermi">      8.86732600 </i>
   <total>
    <array>
     <dimension dim="1">gridpoints</dimension>
     <dimension dim="2">spin</dimension>
     <field>energy</field>
     <field>total</field>
     <field>integrated</field>
     <set>
      <set comment="spin 1">
       <r>     0.2771     0.0000     0.0000 </r>
       <r>     0.3878     0.0000     0.0000 </r>
       <r>     0.4984     0.0000     0.0000 </r>
       <r>     0.6091     0.0000     0.0000 </r>
       <r>     0.7197     0.0000     0.0000 </r>
       <r>     0.8304     0.0000     0.0000 </r>
       <r>     0.9411     0.0000     0.0000 </r>
       <r>     1.0517     0.0000     0.0000 </r>
       <r>     1.1624     0.0000     0.0000 </r>
       <r>     1.2730     0.0000     0.0000 </r>
       <r>     1.3837     0.0000     0.0000 </r>
       <r>     1.4944     0.0000     0.0000 </r>
       <r>     1.6050     0.0000     0.0000 </r>
       <r>     1.7157     0.0000     0.0000 </r>
       <r>     1.8263    -0.0002     0.0000 </r>
       <r>     1.9370    -0.0011    -0.0001 </r>
       <r>     2.0476    -0.0012    -0.0003 </r>
       <r>     2.1583     0.0078     0.0006 </r>
       <r>     2.2690     0.0243     0.0033 </r>
       <r>     2.3796     0.0247     0.0060 </r>
       <r>     2.4903     0.0278     0.0091 </r>
       <r>     2.6009     0.0698     0.0168 </r>
       <r>     2.7116     0.0864     0.0264 </r>
       <r>     2.8222     0.0605     0.0331 </r>
       <r>     2.9329     0.0725     0.0411 </r>
       <r>     3.0436     0.0831     0.0503 </r>
       <r>     3.1542     0.0748     0.0586 </r>
       <r>     3.2649     0.1027     0.0699 </r>
       <r>     3.3755     0.1140     0.0826 </r>
       <r>     3.4862     0.1407     0.0981 </r>
       <r>     3.5969     0.2035     0.1206 </r>
       <r>     3.7075     0.1718     0.1397 </r>
       <r>     3.8182     0.0800     0.1485 </r>
       <r>     3.9288     0.1603     0.1662 </r>
       <r>     4.0395     0.5064     0.2223 </r>
       <r>     4.1501     0.9274     0.3249 </r>
       <r>     4.2608     1.3379     0.4729 </r>
       <r>     4.3715     1.6042     0.6505 </r>
       <r>     4.4821     1.8242     0.8523 </r>
       <r>     4.5928     2.3843     1.1162 </r>
       <r>     4.7034     2.6586     1.4104 </r>
       <r>     4.8141     2.2904     1.6638 </r>
       <r>     4.9248     2.0798     1.8940 </r>
       <r>     5.0354     2.0559     2.1215 </r>
       <r>     5.1461     1.8603     2.3273 </r>
       <r>     5.2567     1.4920     2.4924 </r>
       <r>     5.3674     1.3879     2.6460 </r>
       <r>     5.4780     1.7890     2.8440 </r>
       <r>     5.5887     1.9369     3.0583 </r>
       <r>     5.6994     1.6829     3.2445 </r>
       <r>     5.8100     1.6387     3.4259 </r>
       <r>     5.9207     1.7503     3.6196 </r>
       <r>     6.0313     1.8650     3.8259 </r>
       <r>     6.1420     2.0361     4.0512 </r>
       <r>     6.2526     2.2716     4.3026 </r>
       <r>     6.3633     2.4818     4.5772 </r>
       <r>     6.4740     2.7122     4.8774 </r>
       <r>     6.5846     3.0335     5.2130 </r>
       <r>     6.6953     3.0091     5.5460 </r>
       <r>     6.8059     2.4687     5.8192 </r>
       <r>     6.9166     1.9450     6.0344 </r>
       <r>     7.0273     1.8912     6.2437 </r>
       <r>     7.1379     1.9520     6.4597 </r>
       <r>     7.2486     1.6348     6.6406 </r>
       <r>     7.3592     1.4261     6.7984 </r>
       <r>     7.4699     1.8830     7.0068 </r>
       <r>     7.5805     2.5250     7.2862 </r>
       <r>     7.6912     2.5075     7.5637 </r>
       <r>     7.8019     1.9312     7.7774 </r>
       <r>     7.9125     1.7149     7.9671 </r>
       <r>     8.0232     2.0183     8.1905 </r>
       <r>     8.1338     1.9877     8.4104 </r>
       <r>     8.2445     1.5768     8.5849 </r>
       <r>     8.3551     1.6524     8.7678 </r>
       <r>     8.4658     2.0313     8.9926 </r>
       <r>     8.5765     2.0720     9.2218 </r>
       <r>     8.6871     2.3304     9.4797 </r>
       <r>     8.7978     2.9108     9.8018 </r>
       <r>     8.9084     2.7078    10.1015 </r>
       <r>     9.0191     1.8657    10.3079 </r>
       <r>     9.1298     1.1904    10.4396 </r>
       <r>     9.2404     0.6177    10.5080 </r>
       <r>     9.3511     0.2539    10.5361 </r>
       <r>     9.4617     0.1573    10.5535 </r>
       <r>     9.5724     0.1058    10.5652 </r>
       <r>     9.6830     0.0425    10.5699 </r>
       <r>     9.7937     0.0525    10.5757 </r>
       <r>     9.9044     0.1990    10.5977 </r>
       <r>    10.0150     0.4264    10.6449 </r>
       <r>    10.1257     0.4929    10.6995 </r>
       <r>    10.2363     0.3759    10.7411 </r>
       <r>    10.3470     0.2552    10.7693 </r>
       <r>    10.4576     0.1358    10.7843 </r>
       <r>    10.5683     0.0798    10.7932 </r>
       <r>    10.6790     0.1300    10.8075 </r>
       <r>    10.7896     0.2672    10.8371 </r>
       <r>    10.9003     0.3999    10.8814 </r>
       <r>    11.0109     0.4560    10.9318 </r>
       <r>    11.1216     0.3756    10.9734 </r>
       <r>    11.2323     0.1837    10.9937 </r>
       <r>    11.3429     0.1207    11.0071 </r>
       <r>    11.4536     0.1877    11.0279 </r>
       <r>    11.5642     0.2501    11.0555 </r>
       <r>    11.6749     0.2804    11.0866 </r>
       <r>    11.7855     0.2310    11.1121 </r>
       <r>    11.8962     0.2141    11.1358 </r>
       <r>    12.0069     0.2280    11.1610 </r>
       <r>    12.1175     0.1944    11.1826 </r>
       <r>    12.2282     0.2225    11.2072 </r>
       <r>    12.3388     0.3418    11.2450 </r>
       <r>    12.4495     0.4773    11.2978 </r>
       <r>    12.5601     0.5537    11.3591 </r>
       <r>    12.6708     0.4071    11.4041 </r>
       <r>    12.7815     0.1164    11.4170 </r>
       <r>    12.8921    -0.0190    11.4149 </r>
       <r>    13.0028     0.0448    11.4199 </r>
       <r>    13.1134     0.1600    11.4376 </r>
       <r>    13.2241     0.1796    11.4575 </r>
       <r>    13.3348     0.1859    11.4780 </r>
       <r>    13.4454     0.3000    11.5112 </r>
       <r>    13.5561     0.4318    11.5590 </r>
       <r>    13.6667     0.4217    11.6057 </r>
       <r>    13.7774     0.2753    11.6362 </r>
       <r>    13.8880     0.1320    11.6508 </r>
       <r>    13.9987     0.0859    11.6603 </r>
       <r>    14.1094     0.1136    11.6728 </r>
       <r>    14.2200     0.1731    11.6920 </r>
       <r>    14.3307     0.2612    11.7209 </r>
       <r>    14.4413     0.3015    11.7543 </r>
       <r>    14.5520     0.2309    11.7798 </r>
       <r>    14.6626     0.1524    11.7967 </r>
       <r>    14.7733     0.1705    11.8156 </r>
       <r>    14.8840     0.1472    11.8318 </r>
       <r>    14.9946     0.0714    11.8397 </r>
       <r>    15.1053     0.0663    11.8471 </r>
       <r>    15.2159     0.0730    11.8552 </r>
       <r>    15.3266     0.1197    11.8684 </r>
       <r>    15.4373     0.2646    11.8977 </r>
       <r>    15.5479     0.3040    11.9313 </r>
       <r>    15.6586     0.1673    11.9498 </r>
       <r>    15.7692     0.1505    11.9665 </r>
       <r>    15.8799     0.3272    12.0027 </r>
       <r>    15.9905     0.4095    12.0480 </r>
       <r>    16.1012     0.4165    12.0941 </r>
       <r>    16.2119     0.4726    12.1464 </r>
       <r>    16.3225     0.4033    12.1910 </r>
       <r>    16.4332     0.1986    12.2130 </r>
       <r>    16.5438     0.1604    12.2308 </r>
       <r>    16.6545     0.2970    12.2636 </r>
       <r>    16.7651     0.4399    12.3123 </r>
       <r>    16.8758     0.5490    12.3730 </r>
       <r>    16.9865     0.5044    12.4289 </r>
       <r>    17.0971     0.3143    12.4636 </r>
       <r>    17.2078     0.1199    12.4769 </r>
       <r>    17.3184     0.0798    12.4857 </r>
       <r>    17.4291     0.1776    12.5054 </r>
       <r>    17.5398     0.2473    12.5328 </r>
       <r>    17.6504     0.3041    12.5664 </r>
       <r>    17.7611     0.3692    12.6073 </r>
       <r>    17.8717     0.3195    12.6426 </r>
       <r>    17.9824     0.2270    12.6677 </r>
       <r>    18.0930     0.3189    12.7030 </r>
       <r>    18.2037     0.4447    12.7522 </r>
       <r>    18.3144     0.4006    12.7965 </r>
       <r>    18.4250     0.2312    12.8221 </r>
       <r>    18.5357     0.0642    12.8292 </r>
       <r>    18.6463     0.0760    12.8377 </r>
       <r>    18.7570     0.2237    12.8624 </r>
       <r>    18.8677     0.3348    12.8995 </r>
       <r>    18.9783     0.3415    12.9372 </r>
       <r>    19.0890     0.2752    12.9677 </r>
       <r>    19.1996     0.3202    13.0031 </r>
       <r>    19.3103     0.4992    13.0584 </r>
       <r>    19.4209     0.6303    13.1281 </r>
       <r>    19.5316     0.7580    13.2120 </r>
       <r>    19.6423     0.7481    13.2948 </r>
       <r>    19.7529     0.4442    13.3439 </r>
       <r>    19.8636     0.2870    13.3757 </r>
       <r>    19.9742     0.3852    13.4183 </r>
       <r>    20.0849     0.3990    13.4624 </r>
       <r>    20.1955     0.3864    13.5052 </r>
       <r>    20.3062     0.4477    13.5547 </r>
       <r>    20.4169     0.4478    13.6043 </r>
       <r>    20.5275     0.4739    13.6567 </r>
       <r>    20.6382     0.5522    13.7178 </r>
       <r>    20.7488     0.5021    13.7734 </r>
       <r>    20.8595     0.3071    13.8074 </r>
       <r>    20.9702     0.0971    13.8181 </r>
       <r>    21.0808     0.1004    13.8293 </r>
       <r>    21.1915     0.4390    13.8778 </r>
       <r>    21.3021     0.9000    13.9774 </r>
       <r>    21.4128     1.0231    14.0906 </r>
       <r>    21.5234     0.7045    14.1686 </r>
       <r>    21.6341     0.3678    14.2093 </r>
       <r>    21.7448     0.2839    14.2407 </r>
       <r>    21.8554     0.4305    14.2883 </r>
       <r>    21.9661     0.6095    14.3558 </r>
       <r>    22.0767     0.5421    14.4158 </r>
       <r>    22.1874     0.4824    14.4692 </r>
       <r>    22.2980     0.6814    14.5446 </r>
       <r>    22.4087     0.7676    14.6295 </r>
       <r>    22.5194     0.6448    14.7008 </r>
       <r>    22.6300     0.5125    14.7576 </r>
       <r>    22.7407     0.4375    14.8060 </r>
       <r>    22.8513     0.4485    14.8556 </r>
       <r>    22.9620     0.4797    14.9087 </r>
       <r>    23.0727     0.3977    14.9527 </r>
       <r>    23.1833     0.2968    14.9855 </r>
       <r>    23.2940     0.2586    15.0141 </r>
       <r>    23.4046     0.2945    15.0467 </r>
       <r>    23.5153     0.5483    15.1074 </r>
       <r>    23.6259     0.7883    15.1946 </r>
       <r>    23.7366     0.7163    15.2739 </r>
       <r>    23.8473     0.6481    15.3456 </r>
       <r>    23.9579     0.7325    15.4267 </r>
       <r>    24.0686     0.6503    15.4986 </r>
       <r>    24.1792     0.5284    15.5571 </r>
       <r>    24.2899     0.5408    15.6170 </r>
       <r>    24.4005     0.4895    15.6711 </r>
       <r>    24.5112     0.3572    15.7107 </r>
       <r>    24.6219     0.2810    15.7417 </r>
       <r>    24.7325     0.5396    15.8015 </r>
       <r>    24.8432     0.9609    15.9078 </r>
       <r>    24.9538     0.8998    16.0074 </r>
       <r>    25.0645     0.4261    16.0545 </r>
       <r>    25.1752     0.1692    16.0732 </r>
       <r>    25.2858     0.2686    16.1030 </r>
       <r>    25.3965     0.5422    16.1630 </r>
       <r>    25.5071     0.8007    16.2516 </r>
       <r>    25.6178     0.8486    16.3455 </r>
       <r>    25.7284     0.7202    16.4252 </r>
       <r>    25.8391     0.5218    16.4829 </r>
       <r>    25.9498     0.3730    16.5242 </r>
       <r>    26.0604     0.5676    16.5870 </r>
       <r>    26.1711     0.8725    16.6835 </r>
       <r>    26.2817     0.7421    16.7657 </r>
       <r>    26.3924     0.4738    16.8181 </r>
       <r>    26.5030     0.4208    16.8647 </r>
       <r>    26.6137     0.5959    16.9306 </r>
       <r>    26.7244     0.7823    17.0172 </r>
       <r>    26.8350     0.6078    17.0844 </r>
       <r>    26.9457     0.3870    17.1272 </r>
       <r>    27.0563     0.4011    17.1716 </r>
       <r>    27.1670     0.4089    17.2169 </r>
       <r>    27.2777     0.2982    17.2499 </r>
       <r>    27.3883     0.3108    17.2843 </r>
       <r>    27.4990     0.4808    17.3375 </r>
       <r>    27.6096     0.4805    17.3907 </r>
       <r>    27.7203     0.3247    17.4266 </r>
       <r>    27.8309     0.2219    17.4511 </r>
       <r>    27.9416     0.1714    17.4701 </r>
       <r>    28.0523     0.1213    17.4835 </r>
       <r>    28.1629     0.0876    17.4932 </r>
       <r>    28.2736     0.1318    17.5078 </r>
       <r>    28.3842     0.2928    17.5402 </r>
       <r>    28.4949     0.4777    17.5931 </r>
       <r>    28.6055     0.4791    17.6461 </r>
       <r>    28.7162     0.3745    17.6875 </r>
       <r>    28.8269     0.3190    17.7228 </r>
       <r>    28.9375     0.2082    17.7459 </r>
       <r>    29.0482     0.1031    17.7573 </r>
       <r>    29.1588     0.0971    17.7680 </r>
       <r>    29.2695     0.1122    17.7804 </r>
       <r>    29.3802     0.0956    17.7910 </r>
       <r>    29.4908     0.0941    17.8014 </r>
       <r>    29.6015     0.1792    17.8213 </r>
       <r>    29.7121     0.2176    17.8453 </r>
       <r>    29.8228     0.1256    17.8592 </r>
       <r>    29.9334     0.1302    17.8736 </r>
       <r>    30.0441     0.2794    17.9046 </r>
       <r>    30.1548     0.3545    17.9438 </r>
       <r>    30.2654     0.2437    17.9708 </r>
       <r>    30.3761     0.0708    17.9786 </r>
       <r>    30.4867     0.0026    17.9789 </r>
       <r>    30.5974     0.0189    17.9810 </r>
       <r>    30.7080     0.0249    17.9837 </r>
       <r>    30.8187     0.0078    17.9846 </r>
       <r>    30.9294    -0.0027    17.9843 </r>
       <r>    31.0400     0.0005    17.9843 </r>
       <r>    31.1507     0.0166    17.9862 </r>
       <r>    31.2613     0.0310    17.9896 </r>
       <r>    31.3720     0.0313    17.9931 </r>
       <r>    31.4827     0.0322    17.9966 </r>
       <r>    31.5933     0.0254    17.9994 </r>
       <r>    31.7040     0.0076    18.0003 </r>
       <r>    31.8146    -0.0012    18.0001 </r>
       <r>    31.9253    -0.0011    18.0000 </r>
       <r>    32.0359    -0.0002    18.0000 </r>
       <r>    32.1466     0.0000    18.0000 </r>
       <r>    32.2573     0.0000    18.0000 </r>
       <r>    32.3679     0.0000    18.0000 </r>
       <r>    32.4786     0.0000    18.0000 </r>
       <r>    32.5892     0.0000    18.0000 </r>
       <r>    32.6999     0.0000    18.0000 </r>
       <r>    32.8105     0.0000    18.0000 </r>
       <r>    32.9212     0.0000    18.0000 </r>
       <r>    33.0319     0.0000    18.0000 </r>
       <r>    33.1425     0.0000    18.0000 </r>
       <r>    33.2532     0.0000    18.0000 </r>
       <r>    33.3638     0.0000    18.0000 </r>
       <r>    33.4745     0.0000    18.0000 </r>
      </set>
     </set>
    </array>
   </total>
  </dos>
 </calculation>
 <structure name="finalpos" >
  <crystal>
   <varray name="basis" >
    <v>       2.80565829       0.00000000       0.00000000 </v>
    <v>       1.40282914       2.42977135       0.00000000 </v>
    <v>       1.40282914       0.80992378       2.29081040 </v>
   </varray>
   <i name="volume">     15.61670217 </i>
   <varray name="rec_basis" >
    <v>       0.35642259      -0.20578068      -0.14550891 </v>
    <v>       0.00000000       0.41156136      -0.14550891 </v>
    <v>       0.00000000       0.00000000       0.43652674 </v>
   </varray>
  </crystal>
  <varray name="positions" >
   <v>       0.00000000       0.00000000       0.00000000 </v>
  </varray>
 </structure>
</modeling>
