unknown system                          
           1
     2.805658    0.000000    0.000000
     1.402829    2.429771    0.000000
     1.402829    0.809924    2.290810
   Pd
   1
Direct configuration=     1
   0.00000000  0.00000000  0.00000000
