unknown system                          
   1.00000000000000     
     2.860671    0.000000    0.000000
     1.430336    2.477414    0.000000
     1.430336    0.825805    2.335728
   Pd
     1
Direct
  0.000000  0.000000  0.000000
 
   28   28   28
  104.32      100.86      91.459      78.463      64.312      50.612      38.102      27.206      18.407      12.105    
  8.2271      6.0752      4.7857      4.1035      3.8954      4.1035      4.7857      6.0752      8.2271      12.105    
  18.407      27.206      38.102      50.612      64.312      78.463      91.459      100.86      100.86      94.440    
  83.313      69.906      56.212      43.331      31.796      22.071      14.651      9.7333      6.9125      5.2918    
  4.3406      3.9171      3.9181      4.3416      5.2909      6.9115      9.7342      14.652      22.070      31.795    
  43.332      56.213      69.905      83.312      94.440      100.86      91.459      83.312      71.916      59.287    
  46.813      35.251      25.137      17.020      11.277      7.7796      5.8113      4.6121      3.9807      3.7879    
  3.9807      4.6121      5.8113      7.7796      11.277      17.020      25.137      35.251      46.813      59.287    
  71.916      83.312      91.459      94.441      78.463      69.905      59.286      48.038      37.110      27.172    
  18.843      12.624      8.6027      6.2910      4.8847      4.0696      3.7097      3.7090      4.0689      4.8854    
  6.2917      8.6020      12.623      18.844      27.173      37.110      48.037      59.287      69.906      78.463    
  83.312      83.312      64.313      56.213      46.812      37.110      27.886      19.835      13.542      9.2541    
  6.6866      5.1281      4.1636      3.6663      3.5163      3.6663      4.1636      5.1281      6.6866      9.2541    
  13.542      19.835      27.886      37.110      46.812      56.213      64.313      69.906      71.916      69.906    
  50.612      43.332      35.251      27.172      19.835      13.869      9.6155      6.9515      5.3097      4.2463    
  3.6450      3.3832      3.3835      3.6453      4.2460      5.3094      6.9518      9.6158      13.869      19.835    
  27.173      35.252      43.332      50.612      56.213      59.286      59.286      56.212      38.102      31.795    
  25.137      18.844      13.543      9.6158      7.0457      5.4062      4.3013      3.6355      3.2966      3.1946    
  3.2966      3.6354      4.3013      5.4062      7.0457      9.6158      13.543      18.844      25.137      31.796    
  38.102      43.332      46.813      48.037      46.813      43.332      27.206      22.071      17.020      12.624    
  9.2540      6.9517      5.4063      4.3206      3.6314      3.2468      3.0794      3.0794      3.2467      3.6314    
  4.3206      5.4063      6.9516      9.2541      12.624      17.019      22.071      27.206      31.795      35.251    
  37.110      37.110      35.251      31.795      18.408      14.652      11.277      8.6024      6.6862      5.3096    
  4.3012      3.6314      3.2304      3.0244      2.9618      3.0244      3.2304      3.6314      4.3012      5.3096    
  6.6862      8.6024      11.277      14.652      18.408      22.071      25.137      27.173      27.886      27.173    
  25.137      22.071      12.105      9.7338      7.7802      6.2913      5.1281      4.2461      3.6353      3.2468    
  3.0245      2.9248      2.9247      3.0244      3.2468      3.6353      4.2461      5.1281      6.2914      7.7803    
  9.7338      12.105      14.652      17.019      18.844      19.835      19.835      18.844      17.019      14.652    
  8.2264      6.9121      5.8113      4.8850      4.1639      3.6452      3.2966      3.0794      2.9618      2.9248    
  2.9619      3.0794      3.2966      3.6452      4.1639      4.8850      5.8114      6.9121      8.2264      9.7337    
  11.277      12.624      13.543      13.869      13.543      12.624      11.277      9.7337      6.0752      5.2914    
  4.6115      4.0693      3.6663      3.3833      3.1948      3.0794      3.0244      3.0245      3.0794      3.1947    
  3.3833      3.6663      4.0693      4.6114      5.2914      6.0753      6.9121      7.7802      8.6024      9.2540    
  9.6157      9.6156      9.2540      8.6024      7.7802      6.9120      4.7863      4.3411      3.9807      3.7094    
  3.5159      3.3833      3.2966      3.2468      3.2304      3.2468      3.2966      3.3833      3.5159      3.7094    
  3.9807      4.3411      4.7864      5.2914      5.8114      6.2914      6.6862      6.9516      7.0457      6.9516    
  6.6862      6.2913      5.8114      5.2914      4.1035      3.9176      3.7885      3.7093      3.6663      3.6451    
  3.6353      3.6314      3.6314      3.6353      3.6451      3.6663      3.7094      3.7885      3.9176      4.1035    
  4.3411      4.6114      4.8851      5.1281      5.3096      5.4063      5.4063      5.3096      5.1281      4.8851    
  4.6115      4.3412      3.8948      3.9176      3.9807      4.0693      4.1639      4.2461      4.3013      4.3206    
  4.3013      4.2461      4.1639      4.0692      3.9807      3.9176      3.8947      3.9176      3.9807      4.0692    
  4.1639      4.2461      4.3013      4.3206      4.3013      4.2461      4.1639      4.0693      3.9807      3.9176    
  4.1035      4.3412      4.6115      4.8851      5.1281      5.3096      5.4063      5.4063      5.3096      5.1281    
  4.8851      4.6114      4.3411      4.1035      3.9176      3.7885      3.7094      3.6663      3.6451      3.6353    
  3.6314      3.6314      3.6353      3.6451      3.6663      3.7093      3.7885      3.9176      4.7863      5.2914    
  5.8114      6.2913      6.6862      6.9516      7.0457      6.9516      6.6862      6.2914      5.8114      5.2914    
  4.7864      4.3411      3.9807      3.7094      3.5159      3.3833      3.2966      3.2468      3.2304      3.2468    
  3.2966      3.3833      3.5159      3.7094      3.9807      4.3411      6.0752      6.9120      7.7802      8.6024    
  9.2540      9.6156      9.6157      9.2540      8.6024      7.7802      6.9121      6.0753      5.2914      4.6114    
  4.0693      3.6663      3.3833      3.1947      3.0794      3.0245      3.0244      3.0794      3.1948      3.3833    
  3.6663      4.0693      4.6115      5.2914      8.2264      9.7337      11.277      12.624      13.543      13.869    
  13.543      12.624      11.277      9.7337      8.2264      6.9121      5.8114      4.8850      4.1639      3.6452    
  3.2966      3.0794      2.9619      2.9248      2.9618      3.0794      3.2966      3.6452      4.1639      4.8850    
  5.8113      6.9121      12.105      14.652      17.019      18.844      19.835      19.835      18.844      17.019    
  14.652      12.105      9.7338      7.7803      6.2914      5.1281      4.2461      3.6353      3.2468      3.0244    
  2.9247      2.9248      3.0245      3.2468      3.6353      4.2461      5.1281      6.2913      7.7802      9.7338    
  18.408      22.071      25.137      27.173      27.886      27.173      25.137      22.071      18.408      14.652    
  11.277      8.6024      6.6862      5.3096      4.3012      3.6314      3.2304      3.0244      2.9618      3.0244    
  3.2304      3.6314      4.3012      5.3096      6.6862      8.6024      11.277      14.652      27.206      31.795    
  35.251      37.110      37.110      35.251      31.795      27.206      22.071      17.019      12.624      9.2541    
  6.9516      5.4063      4.3206      3.6314      3.2467      3.0794      3.0794      3.2468      3.6314      4.3206    
  5.4063      6.9517      9.2540      12.624      17.020      22.071      38.102      43.332      46.813      48.037    
  46.813      43.332      38.102      31.796      25.137      18.844      13.543      9.6158      7.0457      5.4062    
  4.3013      3.6354      3.2966      3.1946      3.2966      3.6355      4.3013      5.4062      7.0457      9.6158    
  13.543      18.844      25.137      31.795      50.612      56.212      59.286      59.286      56.213      50.612    
  43.332      35.252      27.173      19.835      13.869      9.6158      6.9518      5.3094      4.2460      3.6453    
  3.3835      3.3832      3.6450      4.2463      5.3097      6.9515      9.6155      13.869      19.835      27.172    
  35.251      43.332      64.313      69.906      71.916      69.906      64.313      56.213      46.812      37.110    
  27.886      19.835      13.542      9.2541      6.6866      5.1281      4.1636      3.6663      3.5163      3.6663    
  4.1636      5.1281      6.6866      9.2541      13.542      19.835      27.886      37.110      46.812      56.213    
  78.463      83.312      83.312      78.463      69.906      59.287      48.037      37.110      27.173      18.844    
  12.623      8.6020      6.2917      4.8854      4.0689      3.7090      3.7097      4.0696      4.8847      6.2910    
  8.6027      12.624      18.843      27.172      37.110      48.038      59.286      69.905      91.459      94.441    
  91.459      83.312      71.916      59.287      46.813      35.251      25.137      17.020      11.277      7.7796    
  5.8113      4.6121      3.9807      3.7879      3.9807      4.6121      5.8113      7.7796      11.277      17.020    
  25.137      35.251      46.813      59.287      71.916      83.312      100.86      100.86      94.440      83.312    
  69.905      56.213      43.332      31.795      22.070      14.652      9.7342      6.9115      5.2909      4.3416    
  3.9181      3.9171      4.3406      5.2918      6.9125      9.7333      14.651      22.071      31.796      43.331    
  56.212      69.906      83.313      94.440      100.86      94.440      83.313      69.906      56.212      43.331    
  31.796      22.071      14.651      9.7333      6.9125      5.2918      4.3406      3.9171      3.9181      4.3416    
  5.2909      6.9115      9.7342      14.652      22.070      31.795      43.332      56.213      69.905      83.312    
  94.440      100.86      94.440      85.835      73.867      60.714      47.848      36.018      25.703      17.414    
  11.521      7.9166      5.8970      4.6717      4.0247      3.8269      4.0247      4.6717      5.8970      7.9166    
  11.521      17.414      25.703      36.018      47.849      60.714      73.867      85.835      94.440      97.598    
  83.313      73.866      62.308      50.278      38.778      28.414      19.728      13.196      8.9325      6.4821    
  5.0166      4.1625      3.7841      3.7833      4.1617      5.0174      6.4829      8.9317      13.195      19.729    
  28.415      38.778      50.278      62.309      73.867      83.312      88.710      88.711      69.906      60.713    
  50.278      39.738      29.860      21.263      14.492      9.8178      7.0049      5.3406      4.3090      3.7741    
  3.6123      3.7741      4.3090      5.3406      7.0049      9.8178      14.492      21.263      29.860      39.738    
  50.278      60.713      69.906      76.357      78.696      76.357      56.213      47.849      38.778      29.860    
  21.800      15.198      10.424      7.4077      5.6036      4.4442      3.7833      3.4946      3.4950      3.7838    
  4.4438      5.6032      7.4081      10.424      15.198      21.799      29.860      38.778      47.848      56.212    
  62.792      66.458      66.458      62.792      43.332      36.018      28.414      21.263      15.198      10.640    
  7.6298      5.7741      4.5457      3.7988      3.4175      3.3026      3.4175      3.7988      4.5457      5.7741    
  7.6298      10.640      15.198      21.263      28.415      36.018      43.332      49.522      53.717      55.209    
  53.717      49.522      31.795      25.704      19.729      14.492      10.424      7.6298      5.8335      4.6001    
  3.8105      3.3696      3.1780      3.1779      3.3694      3.8106      4.6002      5.8333      7.6297      10.424    
  14.492      19.729      25.703      31.795      37.300      41.504      43.791      43.791      41.504      37.300    
  22.071      17.413      13.196      9.8178      7.4079      5.7742      4.6001      3.8149      3.3461      3.1071    
  3.0349      3.1071      3.3461      3.8149      4.6001      5.7742      7.4079      9.8178      13.196      17.413    
  22.071      26.612      30.434      32.990      33.890      32.990      30.434      26.612      14.652      11.521    
  8.9321      7.0045      5.6035      4.5457      3.8105      3.3461      3.0840      2.9682      2.9681      3.0840    
  3.3461      3.8106      4.5456      5.6034      7.0045      8.9321      11.521      14.652      17.991      21.086    
  23.472      24.772      24.772      23.472      21.086      17.991      9.7338      7.9173      6.4824      5.3406    
  4.4440      3.7987      3.3695      3.1071      2.9682      2.9250      2.9682      3.1071      3.3695      3.7987    
  4.4440      5.3406      6.4825      7.9173      9.7338      11.844      14.001      15.878      17.157      17.610    
  17.157      15.878      14.001      11.844      6.9120      5.8971      5.0170      4.3094      3.7835      3.4175    
  3.1780      3.0349      2.9681      2.9682      3.0349      3.1780      3.4175      3.7835      4.3095      5.0170    
  5.8970      6.9121      8.0795      9.3531      10.579      11.556      12.098      12.098      11.556      10.580    
  9.3531      8.0794      5.2914      4.6711      4.1622      3.7741      3.4948      3.3028      3.1780      3.1071    
  3.0840      3.1071      3.1780      3.3028      3.4948      3.7741      4.1621      4.6710      5.2914      5.9854    
  6.6973      7.3908      7.9957      8.4138      8.5637      8.4139      7.9957      7.3907      6.6972      5.9853    
  4.3411      4.0247      3.7837      3.6119      3.4948      3.4175      3.3695      3.3461      3.3461      3.3695    
  3.4175      3.4948      3.6119      3.7837      4.0247      4.3411      4.7236      5.1451      5.5635      5.9310    
  6.2040      6.3508      6.3508      6.2040      5.9310      5.5635      5.1451      4.7237      3.9176      3.8275    
  3.7836      3.7741      3.7836      3.7986      3.8106      3.8149      3.8106      3.7986      3.7835      3.7741    
  3.7837      3.8275      3.9176      4.0573      4.2379      4.4399      4.6369      4.8012      4.9100      4.9480    
  4.9100      4.8012      4.6369      4.4400      4.2380      4.0573      3.9176      4.0247      4.1621      4.3095    
  4.4440      4.5457      4.6001      4.6001      4.5457      4.4440      4.3095      4.1621      4.0247      3.9176    
  3.8538      3.8354      3.8540      3.8946      3.9410      3.9794      4.0008      4.0008      3.9794      3.9410    
  3.8947      3.8540      3.8354      3.8538      4.3411      4.6711      5.0170      5.3406      5.6034      5.7742    
  5.8334      5.7742      5.6034      5.3406      5.0170      4.6710      4.3411      4.0573      3.8354      3.6761    
  3.5692      3.5005      3.4578      3.4340      3.4262      3.4340      3.4578      3.5005      3.5691      3.6760    
  3.8354      4.0573      5.2914      5.8970      6.4825      7.0045      7.4079      7.6297      7.6298      7.4079    
  7.0045      6.4825      5.8971      5.2914      4.7236      4.2379      3.8540      3.5692      3.3678      3.2313    
  3.1459      3.1044      3.1043      3.1458      3.2313      3.3678      3.5692      3.8540      4.2379      4.7237    
  6.9120      7.9172      8.9321      9.8178      10.424      10.639      10.424      9.8178      8.9321      7.9173    
  6.9121      5.9854      5.1451      4.4399      3.8946      3.5005      3.2313      3.0591      2.9633      2.9325    
  2.9633      3.0591      3.2313      3.5005      3.8947      4.4400      5.1451      5.9854      9.7338      11.521    
  13.196      14.492      15.198      15.198      14.492      13.196      11.521      9.7338      8.0794      6.6973    
  5.5636      4.6368      3.9410      3.4579      3.1459      2.9633      2.8797      2.8797      2.9633      3.1458    
  3.4578      3.9411      4.6369      5.5635      6.6972      8.0794      14.652      17.413      19.729      21.263    
  21.799      21.263      19.729      17.413      14.652      11.844      9.3531      7.3908      5.9310      4.8012    
  3.9794      3.4340      3.1044      2.9325      2.8797      2.9325      3.1044      3.4340      3.9794      4.8012    
  5.9310      7.3907      9.3531      11.844      22.071      25.703      28.414      29.860      29.860      28.414    
  25.703      22.071      17.991      14.001      10.580      7.9957      6.2040      4.9100      4.0008      3.4263    
  3.1044      2.9633      2.9633      3.1044      3.4263      4.0008      4.9100      6.2040      7.9957      10.580    
  14.001      17.991      31.795      36.018      38.778      39.738      38.778      36.018      31.795      26.612    
  21.086      15.878      11.556      8.4139      6.3508      4.9479      4.0008      3.4341      3.1459      3.0590    
  3.1459      3.4341      4.0008      4.9479      6.3508      8.4139      11.556      15.878      21.086      26.612    
  43.332      47.848      50.278      50.278      47.849      43.332      37.300      30.434      23.473      17.157    
  12.098      8.5638      6.3509      4.9099      3.9793      3.4579      3.2314      3.2312      3.4577      3.9795    
  4.9101      6.3507      8.5636      12.098      17.157      23.472      30.434      37.300      56.213      60.713    
  62.308      60.713      56.213      49.522      41.504      32.990      24.772      17.611      12.097      8.4139    
  6.2043      4.8012      3.9408      3.5005      3.3680      3.5005      3.9408      4.8012      6.2043      8.4139    
  12.097      17.610      24.772      32.990      41.504      49.522      69.906      73.867      73.866      69.905    
  62.792      53.717      43.791      33.889      24.772      17.157      11.555      7.9954      5.9313      4.6371    
  3.8944      3.5689      3.5694      3.8950      4.6366      5.9307      7.9959      11.556      17.157      24.772    
  33.890      43.792      53.717      62.792      83.312      85.836      83.312      76.357      66.458      55.209    
  43.791      32.990      23.472      15.879      10.580      7.3902      5.5635      4.4405      3.8540      3.6755    
  3.8540      4.4405      5.5635      7.3902      10.580      15.879      23.472      32.990      43.791      55.209    
  66.458      76.357      94.440      94.440      88.711      78.696      66.457      53.717      41.504      30.434    
  21.086      14.002      9.3535      6.6967      5.1447      4.2384      3.8358      3.8349      4.2375      5.1455    
  6.6976      9.3527      14.001      21.087      30.435      41.504      53.717      66.458      78.697      88.710    
  100.86      97.597      88.711      76.357      62.791      49.522      37.300      26.612      17.991      11.844    
  8.0801      5.9853      4.7230      4.0573      3.8545      4.0573      4.7230      5.9853      8.0801      11.844    
  17.991      26.612      37.300      49.522      62.791      76.357      88.711      97.597      91.459      83.312    
  71.916      59.287      46.813      35.251      25.137      17.020      11.277      7.7796      5.8113      4.6121    
  3.9807      3.7879      3.9807      4.6121      5.8113      7.7796      11.277      17.020      25.137      35.251    
  46.813      59.287      71.916      83.312      91.459      94.441      83.313      73.866      62.308      50.278    
  38.778      28.414      19.728      13.196      8.9325      6.4821      5.0166      4.1625      3.7841      3.7833    
  4.1617      5.0174      6.4829      8.9317      13.195      19.729      28.415      38.778      50.278      62.309    
  73.867      83.312      88.710      88.711      71.917      62.309      51.484      40.640      30.534      21.753    
  14.821      10.016      7.1165      5.4142      4.3596      3.8115      3.6456      3.8115      4.3596      5.4142    
  7.1165      10.016      14.821      21.753      30.534      40.640      51.484      62.309      71.916      78.696    
  81.161      78.697      59.287      50.278      40.639      31.264      22.830      15.906      10.861      7.6552    
  5.7591      4.5497      3.8569      3.5536      3.5541      3.8575      4.5492      5.7585      7.6556      10.862    
  15.905      22.829      31.265      40.640      50.278      59.286      66.458      70.485      70.485      66.457    
  46.813      38.778      30.533      22.829      16.285      11.324      8.0220      6.0113      4.7053      3.9056    
  3.4960      3.3724      3.4960      3.9056      4.7053      6.0113      8.0220      11.324      16.285      22.829    
  30.533      38.778      46.813      53.717      58.456      60.152      58.456      53.717      35.251      28.415    
  21.753      15.905      11.324      8.1523      6.1455      4.8072      3.9437      3.4601      3.2500      3.2499    
  3.4599      3.9439      4.8074      6.1453      8.1521      11.324      15.906      21.753      28.414      35.251    
  41.504      46.343      49.002      49.002      46.343      41.504      25.137      19.729      14.822      10.861    
  8.0220      6.1454      4.8428      3.9647      3.4398      3.1730      3.0926      3.1729      3.4398      3.9647    
  4.8428      6.1454      8.0220      10.861      14.822      19.729      25.137      30.434      34.931      37.965    
  39.039      37.965      34.931      30.434      17.020      13.196      10.016      7.6554      6.0116      4.8073    
  3.9647      3.4332      3.1354      3.0049      3.0049      3.1354      3.4332      3.9647      4.8073      6.0116    
  7.6554      10.016      13.196      17.019      21.086      24.862      27.786      29.385      29.385      27.786    
  24.862      21.086      11.277      8.9321      7.1161      5.7588      4.7053      3.9438      3.4398      3.1354    
  2.9766      2.9278      2.9766      3.1354      3.4398      3.9438      4.7053      5.7588      7.1161      8.9321    
  11.277      14.001      16.780      19.195      20.843      21.428      20.843      19.195      16.780      14.001    
  7.7802      6.4825      5.4142      4.5494      3.9054      3.4601      3.1730      3.0048      2.9278      2.9278    
  3.0049      3.1729      3.4600      3.9054      4.5494      5.4142      6.4825      7.7803      9.3532      11.096    
  12.780      14.119      14.863      14.863      14.119      12.780      11.096      9.3531      5.8113      5.0170    
  4.3601      3.8572      3.4959      3.2500      3.0926      3.0049      2.9766      3.0049      3.0926      3.2500    
  3.4959      3.8572      4.3601      5.0170      5.8113      6.6972      7.6619      8.6516      9.5336      10.148    
  10.369      10.148      9.5336      8.6516      7.6618      6.6972      4.6115      4.1621      3.8115      3.5539    
  3.3726      3.2499      3.1730      3.1354      3.1354      3.1729      3.2500      3.3727      3.5539      3.8115    
  4.1621      4.6114      5.1451      5.7252      6.2959      6.8075      7.2063      7.4274      7.4274      7.2063    
  6.8075      6.2958      5.7252      5.1451      3.9807      3.7837      3.6451      3.5539      3.4960      3.4600    
  3.4398      3.4332      3.4398      3.4600      3.4960      3.5539      3.6451      3.7837      3.9807      4.2379    
  4.5430      4.8695      5.1808      5.4381      5.6075      5.6667      5.6075      5.4381      5.1808      4.8695    
  4.5430      4.2379      3.7885      3.7837      3.8115      3.8572      3.9054      3.9438      3.9647      3.9647    
  3.9438      3.9054      3.8572      3.8115      3.7837      3.7885      3.8354      3.9240      4.0439      4.1769    
  4.3014      4.3972      4.4492      4.4492      4.3973      4.3014      4.1769      4.0440      3.9240      3.8353    
  3.9807      4.1621      4.3601      4.5494      4.7053      4.8073      4.8428      4.8073      4.7053      4.5494    
  4.3600      4.1621      3.9807      3.8354      3.7357      3.6802      3.6588      3.6583      3.6661      3.6737    
  3.6767      3.6737      3.6661      3.6583      3.6589      3.6802      3.7357      3.8354      4.6115      5.0170    
  5.4142      5.7588      6.0115      6.1454      6.1454      6.0116      5.7588      5.4143      5.0170      4.6114    
  4.2379      3.9240      3.6802      3.5023      3.3780      3.2940      3.2410      3.2150      3.2150      3.2410    
  3.2940      3.3780      3.5023      3.6801      3.9240      4.2380      5.8113      6.4825      7.1160      7.6554    
  8.0220      8.1522      8.0220      7.6554      7.1161      6.4825      5.8114      5.1451      4.5430      4.0439    
  3.6589      3.3780      3.1821      3.0530      2.9790      2.9547      2.9789      3.0530      3.1821      3.3780    
  3.6589      4.0439      4.5430      5.1451      7.7802      8.9321      10.016      10.861      11.324      11.324    
  10.861      10.016      8.9321      7.7802      6.6972      5.7252      4.8695      4.1769      3.6582      3.2940    
  3.0530      2.9074      2.8389      2.8390      2.9075      3.0530      3.2939      3.6583      4.1770      4.8695    
  5.7251      6.6972      11.277      13.196      14.822      15.905      16.285      15.905      14.822      13.196    
  11.277      9.3531      7.6618      6.2959      5.1808      4.3014      3.6660      3.2410      2.9790      2.8390    
  2.7952      2.8390      2.9790      3.2410      3.6660      4.3014      5.1808      6.2959      7.6618      9.3531    
  17.020      19.729      21.753      22.830      22.830      21.753      19.729      17.019      14.001      11.096    
  8.6516      6.8075      5.4381      4.3973      3.6737      3.2150      2.9547      2.8390      2.8389      2.9547    
  3.2151      3.6737      4.3972      5.4380      6.8075      8.6516      11.096      14.001      25.137      28.414    
  30.533      31.264      30.533      28.414      25.137      21.086      16.780      12.780      9.5336      7.2063    
  5.6075      4.4492      3.6767      3.2150      2.9789      2.9075      2.9790      3.2151      3.6767      4.4492    
  5.6075      7.2063      9.5336      12.780      16.780      21.086      35.251      38.778      40.640      40.640    
  38.778      35.251      30.434      24.862      19.195      14.119      10.148      7.4274      5.6667      4.4492    
  3.6736      3.2411      3.0530      3.0529      3.2410      3.6738      4.4493      5.6666      7.4273      10.148    
  14.120      19.195      24.862      30.434      46.813      50.278      51.485      50.278      46.813      41.504    
  34.931      27.786      20.843      14.863      10.369      7.4274      5.6077      4.3973      3.6659      3.2940    
  3.1823      3.2940      3.6659      4.3972      5.6077      7.4274      10.369      14.863      20.843      27.786    
  34.931      41.504      59.287      62.309      62.308      59.286      53.717      46.343      37.965      29.384    
  21.429      14.863      10.148      7.2061      5.4383      4.3016      3.6581      3.3778      3.3782      3.6585    
  4.3012      5.4378      7.2065      10.148      14.863      21.428      29.385      37.966      46.343      53.717    
  71.916      73.867      71.916      66.457      58.456      49.002      39.039      29.384      20.843      14.120    
  9.5336      6.8071      5.1808      4.1773      3.6589      3.5019      3.6589      4.1773      5.1808      6.8071    
  9.5336      14.120      20.843      29.384      39.039      49.002      58.456      66.457      83.312      83.312    
  78.697      70.485      60.151      49.002      37.966      27.785      19.195      12.780      8.6520      6.2955    
  4.8691      4.0443      3.6805      3.6798      4.0436      4.8698      6.2962      8.6513      12.779      19.196    
  27.786      37.965      49.002      60.152      70.485      78.696      91.458      88.710      81.162      70.485    
  58.455      46.343      34.932      24.862      16.779      11.096      7.6624      5.7252      4.5425      3.9240    
  3.7363      3.9240      4.5425      5.7252      7.6624      11.096      16.779      24.862      34.932      46.343    
  58.455      70.485      81.162      88.710      94.440      88.710      78.697      66.458      53.717      41.504    
  30.435      21.087      14.001      9.3527      6.6976      5.1455      4.2375      3.8349      3.8358      4.2384    
  5.1447      6.6967      9.3535      14.002      21.086      30.434      41.504      53.717      66.457      78.696    
  88.711      94.440      78.463      69.905      59.286      48.038      37.110      27.172      18.843      12.624    
  8.6027      6.2910      4.8847      4.0696      3.7097      3.7090      4.0689      4.8854      6.2917      8.6020    
  12.623      18.844      27.173      37.110      48.037      59.287      69.906      78.463      83.312      83.312    
  69.906      60.713      50.278      39.738      29.860      21.263      14.492      9.8178      7.0049      5.3406    
  4.3090      3.7741      3.6123      3.7741      4.3090      5.3406      7.0049      9.8178      14.492      21.263    
  29.860      39.738      50.278      60.713      69.906      76.357      78.696      76.357      59.287      50.278    
  40.639      31.264      22.830      15.906      10.861      7.6552      5.7591      4.5497      3.8569      3.5536    
  3.5541      3.8575      4.5492      5.7585      7.6556      10.862      15.905      22.829      31.265      40.640    
  50.278      59.286      66.458      70.485      70.485      66.457      48.037      39.738      31.264      23.370    
  16.662      11.564      8.1603      6.0933      4.7607      3.9428      3.5232      3.3966      3.5232      3.9428    