unknown system                          
   1.00000000000000     
     2.860671    0.000000    0.000000
     1.430336    2.477414    0.000000
     1.430336    0.825805    2.335728
   Pd
     1
Direct
  0.000000  0.000000  0.000000
 
   28   28   28
 0.10432055620E+03 0.10086041160E+03 0.91459265510E+02 0.78462837152E+02 0.64312141628E+02
 0.50611881098E+02 0.38102407197E+02 0.27206131314E+02 0.18407031654E+02 0.12105289443E+02
 0.82270913650E+01 0.60752078644E+01 0.47856716164E+01 0.41035414597E+01 0.38954375868E+01
 0.41035414597E+01 0.47856716164E+01 0.60752078644E+01 0.82270913650E+01 0.12105289443E+02
 0.18407031654E+02 0.27206131314E+02 0.38102407197E+02 0.50611881098E+02 0.64312141628E+02
 0.78462837152E+02 0.91459265510E+02 0.10086041160E+03 0.10085994793E+03 0.94439699178E+02
 0.83312696076E+02 0.69906028246E+02 0.56212156837E+02 0.43331389012E+02 0.31795825295E+02
 0.22071218270E+02 0.14651400403E+02 0.97333150456E+01 0.69125297357E+01 0.52918455695E+01
 0.43406178913E+01 0.39171264662E+01 0.39180996566E+01 0.43416100321E+01 0.52908995904E+01
 0.69115308405E+01 0.97342283628E+01 0.14652386526E+02 0.22070325144E+02 0.31794862178E+02
 0.43332283415E+02 0.56213109071E+02 0.69905098586E+02 0.83311624646E+02 0.94440396495E+02
 0.10086076034E+03 0.91458584769E+02 0.83311647735E+02 0.71916129122E+02 0.59286959626E+02
 0.46812748083E+02 0.35250762451E+02 0.25137075439E+02 0.17020090639E+02 0.11276927724E+02
 0.77796132290E+01 0.58113445893E+01 0.46120611414E+01 0.39807079556E+01 0.37879197916E+01
 0.39807211058E+01 0.46120749891E+01 0.58113448731E+01 0.77795963994E+01 0.11276904000E+02
 0.17020076257E+02 0.25137076492E+02 0.35250767759E+02 0.46812732599E+02 0.59286904835E+02
 0.71916037947E+02 0.83311549280E+02 0.91458520738E+02 0.94440517511E+02 0.78463175805E+02
 0.69905225931E+02 0.59286036295E+02 0.48037680957E+02 0.37110447416E+02 0.27172316665E+02
 0.18843446237E+02 0.12623940434E+02 0.86027201871E+01 0.62909680307E+01 0.48847045787E+01
 0.40696095081E+01 0.37096997028E+01 0.37090071644E+01 0.40689159559E+01 0.48854028245E+01
 0.62916796054E+01 0.86020301280E+01 0.12623200069E+02 0.18844080254E+02 0.27173012763E+02
 0.37109797850E+02 0.48036970304E+02 0.59286649010E+02 0.69905900310E+02 0.78462568821E+02
 0.83311795306E+02 0.83312426961E+02 0.64313177178E+02 0.56212620500E+02 0.46812393275E+02
 0.37110108764E+02 0.27885911110E+02 0.19835139406E+02 0.13542297272E+02 0.92540619603E+01
 0.66865732328E+01 0.51281020886E+01 0.41635810819E+01 0.36663185772E+01 0.35162891854E+01
 0.36663290496E+01 0.41635946500E+01 0.51281095560E+01 0.66865701954E+01 0.92540527472E+01
 0.13542291472E+02 0.19835145839E+02 0.27885931064E+02 0.37110135017E+02 0.46812416705E+02
 0.56212633538E+02 0.64313180181E+02 0.69905561658E+02 0.71915683139E+02 0.69905562249E+02
 0.50612044037E+02 0.43332015614E+02 0.35251184190E+02 0.27172492378E+02 0.19835302345E+02
 0.13868995663E+02 0.96154686108E+01 0.69514771684E+01 0.53097183985E+01 0.42462722121E+01
 0.36449589026E+01 0.33831628104E+01 0.33834969158E+01 0.36453014036E+01 0.42459545288E+01
 0.53093876352E+01 0.69518001932E+01 0.96158125704E+01 0.13868703794E+02 0.19835006758E+02
 0.27172839239E+02 0.35251532745E+02 0.43331714987E+02 0.50611727112E+02 0.56212796477E+02
 0.59286473297E+02 0.59286157217E+02 0.56212482469E+02 0.38101726455E+02 0.31795483622E+02
 0.25137075439E+02 0.18843662900E+02 0.13542652081E+02 0.96157535394E+01 0.70457249870E+01
 0.54061853554E+01 0.43012592287E+01 0.36354511049E+01 0.32965929342E+01 0.31946217444E+01
 0.32965886610E+01 0.36354484313E+01 0.43012636470E+01 0.54061968994E+01 0.70457354157E+01
 0.96157544024E+01 0.13542640890E+02 0.18843648849E+02 0.25137076203E+02 0.31795510263E+02
 0.38101777902E+02 0.43331755936E+02 0.46812771514E+02 0.48037430946E+02 0.46812732599E+02
 0.43331697763E+02 0.27206102629E+02 0.22070783293E+02 0.17019534645E+02 0.12623573096E+02
 0.92540332752E+01 0.69516687926E+01 0.54063360300E+01 0.43205751730E+01 0.36313728476E+01
 0.32468131378E+01 0.30794251928E+01 0.30793604638E+01 0.32467395758E+01 0.36314202248E+01
 0.43206372671E+01 0.54062933094E+01 0.69516111774E+01 0.92540517370E+01 0.12623562699E+02
 0.17019431703E+02 0.22070749983E+02 0.27206235341E+02 0.31795416959E+02 0.35251341121E+02
 0.37110106332E+02 0.37110165187E+02 0.35251381123E+02 0.31795297156E+02 0.18407722145E+02
 0.14651864066E+02 0.11276917974E+02 0.86023815349E+01 0.66862281742E+01 0.53095554594E+01
 0.43012494790E+01 0.36314015327E+01 0.32304206092E+01 0.30244411115E+01 0.29618376680E+01
 0.30244290853E+01 0.32304042053E+01 0.36313912093E+01 0.43012497127E+01 0.53095628324E+01
 0.66862330428E+01 0.86023742262E+01 0.11276899298E+02 0.14651838330E+02 0.18407700718E+02
 0.22070778668E+02 0.25137066453E+02 0.27172676300E+02 0.27885586005E+02 0.27172674111E+02
 0.25137066742E+02 0.22070788807E+02 0.12105311967E+02 0.97338012328E+01 0.77801753832E+01
 0.62912841585E+01 0.51281246131E+01 0.42461317974E+01 0.36353065909E+01 0.32467619283E+01
 0.30244636359E+01 0.29247839722E+01 0.29247367668E+01 0.30244132096E+01 0.32467980481E+01
 0.36353435587E+01 0.42460867773E+01 0.51281006204E+01 0.62913779289E+01 0.77802699062E+01
 0.97337598213E+01 0.12105203184E+02 0.14651860854E+02 0.17019482913E+02 0.18843748314E+02
 0.19835147173E+02 0.19835168364E+02 0.18843764126E+02 0.17019469054E+02 0.14651900339E+02
 0.82264106236E+01 0.69120997731E+01 0.58113445893E+01 0.48850095308E+01 0.41639358902E+01
 0.36451555418E+01 0.32965929342E+01 0.30793628076E+01 0.29618474177E+01 0.29247929914E+01
 0.29618537996E+01 0.30793711547E+01 0.32965985528E+01 0.36451568753E+01 0.41639385204E+01
 0.48850174156E+01 0.58113646561E+01 0.69121267515E+01 0.82264358265E+01 0.97337486456E+01
 0.11276909047E+02 0.12623567714E+02 0.13542640890E+02 0.13868833033E+02 0.13542646280E+02
 0.12623572421E+02 0.11276904000E+02 0.97337309999E+01 0.60751901196E+01 0.52913996515E+01
 0.46114942075E+01 0.40692531111E+01 0.36663008324E+01 0.33833434943E+01 0.31947614787E+01
 0.30793714042E+01 0.30244113406E+01 0.30244534788E+01 0.30794225996E+01 0.31947441377E+01
 0.33833221044E+01 0.36663322145E+01 0.40692577705E+01 0.46114192552E+01 0.52913640117E+01
 0.60752933743E+01 0.69121107962E+01 0.77802296370E+01 0.86023564814E+01 0.92540407967E+01
 0.96156501576E+01 0.96156318866E+01 0.92540350025E+01 0.86023865250E+01 0.77801988227E+01
 0.69119767585E+01 0.47863380209E+01 0.43410815541E+01 0.39807222925E+01 0.37093610506E+01
 0.35159200402E+01 0.33833339767E+01 0.32966029978E+01 0.32467682609E+01 0.32303801187E+01
 0.32467755236E+01 0.32966128897E+01 0.33833398492E+01 0.35159195323E+01 0.37093551319E+01
 0.39807182216E+01 0.43410855512E+01 0.47863502680E+01 0.52913817564E+01 0.58113789930E+01
 0.62913554045E+01 0.66862089562E+01 0.69516398625E+01 0.70457497526E+01 0.69516372541E+01
 0.66862010502E+01 0.62913409532E+01 0.58113592100E+01 0.52913632532E+01 0.41035372871E+01
 0.39175859564E+01 0.37885086428E+01 0.37093499892E+01 0.36663248770E+01 0.36451342918E+01
 0.36353306144E+01 0.36313957123E+01 0.36313870367E+01 0.36353168616E+01 0.36451273479E+01
 0.36663186424E+01 0.37093509593E+01 0.37885358959E+01 0.39176212961E+01 0.41035257110E+01
 0.43410813786E+01 0.46114328273E+01 0.48850552883E+01 0.51281273175E+01 0.53095586598E+01
 0.54063178218E+01 0.54063230616E+01 0.53095547469E+01 0.51281053834E+01 0.48850599996E+01
 0.46114944831E+01 0.43411505420E+01 0.38947568455E+01 0.39176359938E+01 0.39807211058E+01
 0.40692546081E+01 0.41639494583E+01 0.42461174679E+01 0.43012636470E+01 0.43206085820E+01
 0.43012594624E+01 0.42461093017E+01 0.41639385204E+01 0.40692400257E+01 0.39807038847E+01
 0.39176171234E+01 0.38947372025E+01 0.39176171234E+01 0.39807038847E+01 0.40692400257E+01
 0.41639385204E+01 0.42461093017E+01 0.43012594624E+01 0.43206085820E+01 0.43012636470E+01
 0.42461174679E+01 0.41639494583E+01 0.40692546081E+01 0.39807211058E+01 0.39176359938E+01
 0.41035372871E+01 0.43411505420E+01 0.46114944831E+01 0.48850599996E+01 0.51281053834E+01
 0.53095547469E+01 0.54063230616E+01 0.54063178218E+01 0.53095586598E+01 0.51281273175E+01
 0.48850552883E+01 0.46114328273E+01 0.43410813786E+01 0.41035257110E+01 0.39176212961E+01
 0.37885358959E+01 0.37093509593E+01 0.36663186424E+01 0.36451273479E+01 0.36353168616E+01
 0.36313870367E+01 0.36313957123E+01 0.36353306144E+01 0.36451342918E+01 0.36663248770E+01
 0.37093499892E+01 0.37885086428E+01 0.39175859564E+01 0.47863380209E+01 0.52913632532E+01
 0.58113592100E+01 0.62913409532E+01 0.66862010502E+01 0.69516372541E+01 0.70457497526E+01
 0.69516398625E+01 0.66862089562E+01 0.62913554045E+01 0.58113789930E+01 0.52913817564E+01
 0.47863502680E+01 0.43410855512E+01 0.39807182216E+01 0.37093551319E+01 0.35159195323E+01
 0.33833398492E+01 0.32966128897E+01 0.32467755236E+01 0.32303801187E+01 0.32467682609E+01
 0.32966029978E+01 0.33833339767E+01 0.35159200402E+01 0.37093610506E+01 0.39807222925E+01
 0.43410815541E+01 0.60751901196E+01 0.69119767585E+01 0.77801988227E+01 0.86023865250E+01
 0.92540350025E+01 0.96156318866E+01 0.96156501576E+01 0.92540407967E+01 0.86023564814E+01
 0.77802296370E+01 0.69121107962E+01 0.60752933743E+01 0.52913640117E+01 0.46114192552E+01
 0.40692577705E+01 0.36663322145E+01 0.33833221044E+01 0.31947441377E+01 0.30794225996E+01
 0.30244534788E+01 0.30244113406E+01 0.30793714042E+01 0.31947614787E+01 0.33833434943E+01
 0.36663008324E+01 0.40692531111E+01 0.46114942075E+01 0.52913996515E+01 0.82264106236E+01
 0.97337309999E+01 0.11276904000E+02 0.12623572421E+02 0.13542646280E+02 0.13868833033E+02
 0.13542640890E+02 0.12623567714E+02 0.11276909047E+02 0.97337486456E+01 0.82264358265E+01
 0.69121267515E+01 0.58113646561E+01 0.48850174156E+01 0.41639385204E+01 0.36451568753E+01
 0.32965985528E+01 0.30793711547E+01 0.29618537996E+01 0.29247929914E+01 0.29618474177E+01
 0.30793628076E+01 0.32965929342E+01 0.36451555418E+01 0.41639358902E+01 0.48850095308E+01
 0.58113445893E+01 0.69120997731E+01 0.12105311967E+02 0.14651900339E+02 0.17019469054E+02
 0.18843764126E+02 0.19835168364E+02 0.19835147173E+02 0.18843748314E+02 0.17019482913E+02
 0.14651860854E+02 0.12105203184E+02 0.97337598213E+01 0.77802699062E+01 0.62913779289E+01
 0.51281006204E+01 0.42460867773E+01 0.36353435587E+01 0.32467980481E+01 0.30244132096E+01
 0.29247367668E+01 0.29247839722E+01 0.30244636359E+01 0.32467619283E+01 0.36353065909E+01
 0.42461317974E+01 0.51281246131E+01 0.62912841585E+01 0.77801753832E+01 0.97338012328E+01
 0.18407722145E+02 0.22070788807E+02 0.25137066742E+02 0.27172674111E+02 0.27885586005E+02
 0.27172676300E+02 0.25137066453E+02 0.22070778668E+02 0.18407700718E+02 0.14651838330E+02
 0.11276899298E+02 0.86023742262E+01 0.66862330428E+01 0.53095628324E+01 0.43012497127E+01
 0.36313912093E+01 0.32304042053E+01 0.30244290853E+01 0.29618376680E+01 0.30244411115E+01
 0.32304206092E+01 0.36314015327E+01 0.43012494790E+01 0.53095554594E+01 0.66862281742E+01
 0.86023815349E+01 0.11276917974E+02 0.14651864066E+02 0.27206102629E+02 0.31795297156E+02
 0.35251381123E+02 0.37110165187E+02 0.37110106332E+02 0.35251341121E+02 0.31795416959E+02
 0.27206235341E+02 0.22070749983E+02 0.17019431703E+02 0.12623562699E+02 0.92540517370E+01
 0.69516111774E+01 0.54062933094E+01 0.43206372671E+01 0.36314202248E+01 0.32467395758E+01
 0.30793604638E+01 0.30794251928E+01 0.32468131378E+01 0.36313728476E+01 0.43205751730E+01
 0.54063360300E+01 0.69516687926E+01 0.92540332752E+01 0.12623573096E+02 0.17019534645E+02
 0.22070783293E+02 0.38101726455E+02 0.43331697763E+02 0.46812732599E+02 0.48037430946E+02
 0.46812771514E+02 0.43331755936E+02 0.38101777902E+02 0.31795510263E+02 0.25137076203E+02
 0.18843648849E+02 0.13542640890E+02 0.96157544024E+01 0.70457354157E+01 0.54061968994E+01
 0.43012636470E+01 0.36354484313E+01 0.32965886610E+01 0.31946217444E+01 0.32965929342E+01
 0.36354511049E+01 0.43012592287E+01 0.54061853554E+01 0.70457249870E+01 0.96157535394E+01
 0.13542652081E+02 0.18843662900E+02 0.25137075439E+02 0.31795483622E+02 0.50612044037E+02
 0.56212482469E+02 0.59286157217E+02 0.59286473297E+02 0.56212796477E+02 0.50611727112E+02
 0.43331714987E+02 0.35251532745E+02 0.27172839239E+02 0.19835006758E+02 0.13868703794E+02
 0.96158125704E+01 0.69518001932E+01 0.53093876352E+01 0.42459545288E+01 0.36453014036E+01
 0.33834969158E+01 0.33831628104E+01 0.36449589026E+01 0.42462722121E+01 0.53097183985E+01
 0.69514771684E+01 0.96154686108E+01 0.13868995663E+02 0.19835302345E+02 0.27172492378E+02
 0.35251184190E+02 0.43332015614E+02 0.64313177178E+02 0.69905562249E+02 0.71915683139E+02
 0.69905561658E+02 0.64313180181E+02 0.56212633538E+02 0.46812416705E+02 0.37110135017E+02
 0.27885931064E+02 0.19835145839E+02 0.13542291472E+02 0.92540527472E+01 0.66865701954E+01
 0.51281095560E+01 0.41635946500E+01 0.36663290496E+01 0.35162891854E+01 0.36663185772E+01
 0.41635810819E+01 0.51281020886E+01 0.66865732328E+01 0.92540619603E+01 0.13542297272E+02
 0.19835139406E+02 0.27885911110E+02 0.37110108764E+02 0.46812393275E+02 0.56212620500E+02
 0.78463175805E+02 0.83312426961E+02 0.83311795306E+02 0.78462568821E+02 0.69905900310E+02
 0.59286649010E+02 0.48036970304E+02 0.37109797850E+02 0.27173012763E+02 0.18844080254E+02
 0.12623200069E+02 0.86020301280E+01 0.62916796054E+01 0.48854028245E+01 0.40689159559E+01
 0.37090071644E+01 0.37096997028E+01 0.40696095081E+01 0.48847045787E+01 0.62909680307E+01
 0.86027201871E+01 0.12623940434E+02 0.18843446237E+02 0.27172316665E+02 0.37110447416E+02
 0.48037680957E+02 0.59286036295E+02 0.69905225931E+02 0.91458584769E+02 0.94440517511E+02
 0.91458520738E+02 0.83311549280E+02 0.71916037947E+02 0.59286904835E+02 0.46812732599E+02
 0.35250767759E+02 0.25137076492E+02 0.17020076257E+02 0.11276904000E+02 0.77795963994E+01
 0.58113448731E+01 0.46120749891E+01 0.39807211058E+01 0.37879197916E+01 0.39807079556E+01
 0.46120611414E+01 0.58113445893E+01 0.77796132290E+01 0.11276927724E+02 0.17020090639E+02
 0.25137075439E+02 0.35250762451E+02 0.46812748083E+02 0.59286959626E+02 0.71916129122E+02
 0.83311647735E+02 0.10085994793E+03 0.10086076034E+03 0.94440396495E+02 0.83311624646E+02
 0.69905098586E+02 0.56213109071E+02 0.43332283415E+02 0.31794862178E+02 0.22070325144E+02
 0.14652386526E+02 0.97342283628E+01 0.69115308405E+01 0.52908995904E+01 0.43416100321E+01
 0.39180996566E+01 0.39171264662E+01 0.43406178913E+01 0.52918455695E+01 0.69125297357E+01
 0.97333150456E+01 0.14651400403E+02 0.22071218270E+02 0.31795825295E+02 0.43331389012E+02
 0.56212156837E+02 0.69906028246E+02 0.83312696076E+02 0.94439699178E+02 0.10085994793E+03
 0.94439699178E+02 0.83312696076E+02 0.69906028246E+02 0.56212156837E+02 0.43331389012E+02
 0.31795825295E+02 0.22071218270E+02 0.14651400403E+02 0.97333150456E+01 0.69125297357E+01
 0.52918455695E+01 0.43406178913E+01 0.39171264662E+01 0.39180996566E+01 0.43416100321E+01
 0.52908995904E+01 0.69115308405E+01 0.97342283628E+01 0.14652386526E+02 0.22070325144E+02
 0.31794862178E+02 0.43332283415E+02 0.56213109071E+02 0.69905098586E+02 0.83311624646E+02
 0.94440396495E+02 0.10086076034E+03 0.94440171740E+02 0.85835352391E+02 0.73866791106E+02
 0.60714027328E+02 0.47848487857E+02 0.36017627628E+02 0.25703474915E+02 0.17413542904E+02
 0.11521004023E+02 0.79166053092E+01 0.58970408434E+01 0.46716733526E+01 0.40246938592E+01
 0.38268552559E+01 0.40246949489E+01 0.46716750239E+01 0.58970385463E+01 0.79165976213E+01
 0.11520997645E+02 0.17413542582E+02 0.25703482427E+02 0.36017655885E+02 0.47848532054E+02
 0.60714015925E+02 0.73866615998E+02 0.85835026345E+02 0.94439898016E+02 0.97598086835E+02
 0.83312613171E+02 0.73866419065E+02 0.62308364657E+02 0.50278400234E+02 0.38778380374E+02
 0.28414068317E+02 0.19728277336E+02 0.13196098705E+02 0.89324855591E+01 0.64820682175E+01
 0.50166022697E+01 0.41625305175E+01 0.37840528495E+01 0.37832741728E+01 0.41617442939E+01
 0.50173723601E+01 0.64828618307E+01 0.89317233079E+01 0.13195284578E+02 0.19728998791E+02
 0.28414868570E+02 0.38777696906E+02 0.50277638724E+02 0.62308999044E+02 0.73867001554E+02
 0.83311721141E+02 0.88709874182E+02 0.88710679168E+02 0.69905983004E+02 0.60713411097E+02
 0.50277602143E+02 0.39738042434E+02 0.29860215769E+02 0.21263094980E+02 0.14491844336E+02
 0.98178247554E+01 0.70049286781E+01 0.53405939801E+01 0.43090259764E+01 0.37740756384E+01
 0.36122902649E+01 0.37741014726E+01 0.43090438646E+01 0.53405852644E+01 0.70049083548E+01
 0.98178099650E+01 0.14491835216E+02 0.21263091067E+02 0.29860219774E+02 0.39738049513E+02
 0.50277600911E+02 0.60713408092E+02 0.69905992695E+02 0.76357489875E+02 0.78696133475E+02
 0.76357474599E+02 0.56212832381E+02 0.47848695767E+02 0.38777788961E+02 0.29859581767E+02
 0.21799578224E+02 0.15198461989E+02 0.10423685652E+02 0.74077359816E+01 0.56036477273E+01
 0.44442167361E+01 0.37833058841E+01 0.34945662461E+01 0.34950141532E+01 0.37837664165E+01
 0.44437897448E+01 0.56031888125E+01 0.74081441902E+01 0.10424128310E+02 0.15198054169E+02
 0.21799149081E+02 0.29860014450E+02 0.38778271186E+02 0.47848349343E+02 0.56212442447E+02
 0.62792015550E+02 0.66457941707E+02 0.66457535711E+02 0.62791609692E+02 0.43331857866E+02
 0.36018427344E+02 0.28414443000E+02 0.21262910436E+02 0.15198250382E+02 0.10639579762E+02
 0.76297680726E+01 0.57740524283E+01 0.45456585393E+01 0.37988310505E+01 0.34174718513E+01
 0.33026037659E+01 0.34174709682E+01 0.37988289244E+01 0.45456563777E+01 0.57740501262E+01
 0.76297624301E+01 0.10639576201E+02 0.15198265429E+02 0.21262955711E+02 0.28414501826E+02
 0.36018470071E+02 0.43331871730E+02 0.49521569456E+02 0.53716964457E+02 0.55208506015E+02
 0.53716969411E+02 0.49521572434E+02 0.31795300486E+02 0.25703538874E+02 0.19728717012E+02
 0.14492204205E+02 0.10423835170E+02 0.76298293981E+01 0.58334522340E+01 0.46000622635E+01
 0.38104999918E+01 0.33695618892E+01 0.31780290954E+01 0.31779020424E+01 0.33694313073E+01
 0.38106197938E+01 0.46001868505E+01 0.58333272333E+01 0.76296936820E+01 0.10423941072E+02
 0.14492315644E+02 0.19728592779E+02 0.25703425966E+02 0.31795450451E+02 0.37299772730E+02
 0.41503975110E+02 0.43791243293E+02 0.43791341202E+02 0.41504043049E+02 0.37299600198E+02
 0.22070730836E+02 0.17412923831E+02 0.13195740913E+02 0.98178257025E+01 0.74079277929E+01
 0.57742341388E+01 0.46001427011E+01 0.38149436627E+01 0.33461064752E+01 0.31070944357E+01
 0.30349281950E+01 0.31070881153E+01 0.33460984451E+01 0.38149397661E+01 0.46001439624E+01
 0.57742333845E+01 0.74079052458E+01 0.98177716815E+01 0.13195676641E+02 0.17412894445E+02
 0.22070761038E+02 0.26612100857E+02 0.30434274527E+02 0.32990183425E+02 0.33889727349E+02
 0.32990165918E+02 0.30434228283E+02 0.26612039612E+02 0.14651878361E+02 0.11521012651E+02
 0.89320910789E+01 0.70044933064E+01 0.56034501422E+01 0.45456708663E+01 0.38105474113E+01
 0.33461132980E+01 0.30840280751E+01 0.29681697162E+01 0.29681311620E+01 0.30839819716E+01
 0.33461341437E+01 0.38105787191E+01 0.45456383694E+01 0.56034073964E+01 0.70045098183E+01
 0.89321196984E+01 0.11520985683E+02 0.14651831732E+02 0.17991139837E+02 0.21086170442E+02
 0.23472420446E+02 0.24771794913E+02 0.24771827073E+02 0.23472464629E+02 0.21086174328E+02
 0.17991146589E+02 0.97337847703E+01 0.79172551951E+01 0.64824424921E+01 0.53405597333E+01
 0.44440060038E+01 0.37986812200E+01 0.33695001569E+01 0.31070630252E+01 0.29681582656E+01
 0.29250040074E+01 0.29681509478E+01 0.31070607670E+01 0.33694986776E+01 0.37986670417E+01
 0.44439916708E+01 0.53405830327E+01 0.64825100331E+01 0.79173122997E+01 0.97337799120E+01
 0.11843957376E+02 0.14001249843E+02 0.15878064733E+02 0.17156839957E+02 0.17610477034E+02
 0.17156851812E+02 0.15878107368E+02 0.14001324435E+02 0.11844022614E+02 0.69120453756E+01
 0.58970654747E+01 0.50170022165E+01 0.43094258960E+01 0.37834958596E+01 0.34174938529E+01
 0.31779893657E+01 0.30348878093E+01 0.29681241996E+01 0.29681733548E+01 0.30349433752E+01
 0.31779560528E+01 0.34174527271E+01 0.37835390797E+01 0.43094751286E+01 0.50169711774E+01
 0.58970419060E+01 0.69121138997E+01 0.80794579972E+01 0.93531132400E+01 0.10579498588E+02
 0.11555667086E+02 0.12097655983E+02 0.12097625216E+02 0.11555645533E+02 0.10579545750E+02
 0.93531362410E+01 0.80793866075E+01 0.52913564274E+01 0.46710544833E+01 0.41621745671E+01
 0.37740765176E+01 0.34947563542E+01 0.33027856839E+01 0.31779843227E+01 0.31070880475E+01
 0.30839734454E+01 0.31070923822E+01 0.31779982771E+01 0.33028125473E+01 0.34947819055E+01
 0.37740706830E+01 0.41621293507E+01 0.46710054799E+01 0.52913604296E+01 0.59853949512E+01
 0.66972591574E+01 0.73907664517E+01 0.79956541788E+01 0.84138468280E+01 0.85637156662E+01
 0.84138644758E+01 0.79956547593E+01 0.73907168587E+01 0.66971702368E+01 0.59853233950E+01
 0.43410741512E+01 0.40246809779E+01 0.37836793985E+01 0.36118757326E+01 0.34947948699E+01
 0.34174617874E+01 0.33694997560E+01 0.33461261064E+01 0.33461124455E+01 0.33694886194E+01
 0.34174807133E+01 0.34948112636E+01 0.36118565160E+01 0.37836539061E+01 0.40246873481E+01
 0.43410908365E+01 0.47236466539E+01 0.51450854589E+01 0.55635347323E+01 0.59310233204E+01
 0.62040144189E+01 0.63507786216E+01 0.63507895469E+01 0.62040207283E+01 0.59310010371E+01
 0.55635123928E+01 0.51450899912E+01 0.47236518271E+01 0.39175955032E+01 0.38274683774E+01
 0.37836481253E+01 0.37741029794E+01 0.37835549955E+01 0.37986423296E+01 0.38105577379E+01
 0.38149441053E+01 0.38105665769E+01 0.37986302774E+01 0.37835163474E+01 0.37740748098E+01
 0.37836632638E+01 0.38275086770E+01 0.39176160536E+01 0.40572814279E+01 0.42379382990E+01
 0.44399435875E+01 0.46368547305E+01 0.48012433235E+01 0.49099963575E+01 0.49479836628E+01
 0.49099831639E+01 0.48012398984E+01 0.46368804787E+01 0.44399951949E+01 0.42379911816E+01
 0.40573041641E+01 0.39176346685E+01 0.40246992574E+01 0.41621241824E+01 0.43094634206E+01
 0.44439990924E+01 0.45456580575E+01 0.46001270624E+01 0.46001232084E+01 0.45456507714E+01
 0.44439937513E+01 0.43094550703E+01 0.41621067559E+01 0.40246787165E+01 0.39176184487E+01
 0.38538202063E+01 0.38353729445E+01 0.38539611045E+01 0.38946484743E+01 0.39410321565E+01
 0.39794141113E+01 0.40007526286E+01 0.40007572915E+01 0.39794231246E+01 0.39410388044E+01
 0.38946572686E+01 0.38539764128E+01 0.38353896849E+01 0.38538347990E+01 0.43411328030E+01
 0.46710560355E+01 0.50170044174E+01 0.53405861834E+01 0.56033908333E+01 0.57742319260E+01
 0.58333975241E+01 0.57742333564E+01 0.56034107754E+01 0.53406145186E+01 0.50170014060E+01
 0.46710055196E+01 0.43410733811E+01 0.40572771608E+01 0.38353835318E+01 0.36760634376E+01
 0.35691608710E+01 0.35004799076E+01 0.34578356563E+01 0.34340142416E+01 0.34262494430E+01
 0.34340140837E+01 0.34578379962E+01 0.35004799332E+01 0.35691437525E+01 0.36760277118E+01
 0.38353582976E+01 0.40572966728E+01 0.52913508011E+01 0.58970208322E+01 0.64824936461E+01
 0.70044988731E+01 0.74079198577E+01 0.76297484155E+01 0.76297673991E+01 0.74079379623E+01
 0.70044830709E+01 0.64824951312E+01 0.58970751466E+01 0.52913948356E+01 0.47236416047E+01
 0.42379240947E+01 0.38539749784E+01 0.35691833618E+01 0.33677514010E+01 0.32312659066E+01
 0.31458823133E+01 0.31043704723E+01 0.31043385964E+01 0.31458416927E+01 0.32312780853E+01
 0.33677719980E+01 0.35691600476E+01 0.38539508068E+01 0.42379443109E+01 0.47236568764E+01
 0.69119993698E+01 0.79171856992E+01 0.89320976902E+01 0.98178364405E+01 0.10423916386E+02
 0.10639364563E+02 0.10423879445E+02 0.98178009921E+01 0.89321070588E+01 0.79172504918E+01
 0.69120915837E+01 0.59854240333E+01 0.51450943110E+01 0.44399185438E+01 0.38946464925E+01
 0.35005091177E+01 0.32312795927E+01 0.30590778788E+01 0.29632990837E+01 0.29325435860E+01
 0.29633004091E+01 0.30590658297E+01 0.32312591073E+01 0.35005117363E+01 0.38946837134E+01
 0.44399576839E+01 0.51450879157E+01 0.59853558903E+01 0.97337886246E+01 0.11520974908E+02
 0.13195638530E+02 0.14492281135E+02 0.15198288775E+02 0.15198240070E+02 0.14492229919E+02
 0.13195682247E+02 0.11521023346E+02 0.97337549612E+01 0.80794120027E+01 0.66972629100E+01
 0.55635513452E+01 0.46368300856E+01 0.39410062202E+01 0.34578514133E+01 0.31458936718E+01
 0.29632740136E+01 0.28796780044E+01 0.28797299206E+01 0.29633260370E+01 0.31458396736E+01
 0.34577970550E+01 0.39410579059E+01 0.46368858385E+01 0.55634938865E+01 0.66971863621E+01
 0.80794326021E+01 0.14651945793E+02 0.17412922079E+02 0.19728593341E+02 0.21263092491E+02
 0.21799387605E+02 0.21263136009E+02 0.19728625572E+02 0.17412894921E+02 0.14651871611E+02
 0.11843987364E+02 0.93531059788E+01 0.73907669963E+01 0.59310423514E+01 0.48012375403E+01
 0.39793872000E+01 0.34340147465E+01 0.31043844649E+01 0.29325128486E+01 0.28796766544E+01
 0.29325097316E+01 0.31043902200E+01 0.34340322222E+01 0.39793963226E+01 0.48012174789E+01
 0.59309943813E+01 0.73907296651E+01 0.93531172041E+01 0.11844051382E+02 0.22070789147E+02
 0.25703475982E+02 0.28414486926E+02 0.29859798354E+02 0.29859802909E+02 0.28414499090E+02
 0.25703486240E+02 0.22070781827E+02 0.17991125881E+02 0.14001246216E+02 0.10579518389E+02
 0.79956766664E+01 0.62040221615E+01 0.49099934143E+01 0.40007530460E+01 0.34262600073E+01
 0.31043513882E+01 0.29632979814E+01 0.29633012123E+01 0.31043642919E+01 0.34262803456E+01
 0.40007645944E+01 0.49099811619E+01 0.62039960977E+01 0.79956688623E+01 0.10579544330E+02
 0.14001291726E+02 0.17991160545E+02 0.31795331745E+02 0.36018214342E+02 0.38778070390E+02
 0.39738105747E+02 0.38778060297E+02 0.36018228812E+02 0.31795387935E+02 0.26612159945E+02
 0.21086158850E+02 0.15877973305E+02 0.11555643879E+02 0.84139056914E+01 0.63507885295E+01
 0.49479289984E+01 0.40007544051E+01 0.34340730591E+01 0.31458564273E+01 0.30590362090E+01
 0.31458638369E+01 0.34340927171E+01 0.40007680639E+01 0.49479105798E+01 0.63507541062E+01
 0.84139102824E+01 0.11555703761E+02 0.15878036231E+02 0.21086158989E+02 0.26612101796E+02
 0.43331923177E+02 0.47848431568E+02 0.50277913896E+02 0.50278125302E+02 0.47848663453E+02
 0.43331768619E+02 0.37299608225E+02 0.30434358618E+02 0.23472537633E+02 0.17156737267E+02
 0.12097531208E+02 0.85637978999E+01 0.63508856871E+01 0.49098807882E+01 0.39793184079E+01
 0.34579322225E+01 0.32313689571E+01 0.32311563003E+01 0.34577182745E+01 0.39795280565E+01
 0.49100854946E+01 0.63506522018E+01 0.85635539849E+01 0.12097730261E+02 0.17156978159E+02
 0.23472365752E+02 0.30434143003E+02 0.37299764702E+02 0.56212898361E+02 0.60713396105E+02
 0.62308364024E+02 0.60713409288E+02 0.56212911002E+02 0.49521750441E+02 0.41503778329E+02
 0.32990183674E+02 0.24772064836E+02 0.17610507729E+02 0.12097388393E+02 0.84138647924E+01
 0.62042697996E+01 0.48012348265E+01 0.39407823393E+01 0.35004802102E+01 0.33680160211E+01
 0.35004816991E+01 0.39407750812E+01 0.48012172511E+01 0.62042520552E+01 0.84138504849E+01
 0.12097368968E+02 0.17610481779E+02 0.24772045369E+02 0.32990183572E+02 0.41503788098E+02
 0.49521751260E+02 0.69905832350E+02 0.73866879695E+02 0.73866349482E+02 0.69905300464E+02
 0.62792073771E+02 0.53717231871E+02 0.43791033143E+02 0.33889477323E+02 0.24772082880E+02
 0.17157118348E+02 0.11555394930E+02 0.79954064434E+01 0.59312785416E+01 0.46371476959E+01
 0.38943872847E+01 0.35688835194E+01 0.35694426013E+01 0.38949514386E+01 0.46365906048E+01
 0.59306976530E+01 0.79959386242E+01 0.11555970444E+02 0.17156603418E+02 0.24771518613E+02
 0.33889974139E+02 0.43791562586E+02 0.53716715796E+02 0.62791551471E+02 0.83312092985E+02
 0.85836142015E+02 0.83312093951E+02 0.76356986987E+02 0.66457729577E+02 0.55208821969E+02
 0.43791278021E+02 0.32989665886E+02 0.23472451793E+02 0.15878573153E+02 0.10579521890E+02
 0.73902166208E+01 0.55635210675E+01 0.44404977438E+01 0.38539728714E+01 0.36755275886E+01
 0.38539643127E+01 0.44404852765E+01 0.55635173903E+01 0.73902310576E+01 0.10579546569E+02
 0.15878593444E+02 0.23472466997E+02 0.32989684270E+02 0.43791294678E+02 0.55208825365E+02
 0.66457719707E+02 0.76356978622E+02 0.94439511014E+02 0.94440319770E+02 0.88710672369E+02
 0.78696133392E+02 0.66457324560E+02 0.53717388527E+02 0.41504401559E+02 0.30433787908E+02
 0.21085766259E+02 0.14001743968E+02 0.93535344813E+01 0.66967280153E+01 0.51446608909E+01
 0.42384110375E+01 0.38358079835E+01 0.38349280671E+01 0.42375099443E+01 0.51455073433E+01
 0.66976305970E+01 0.93527244796E+01 0.14000870820E+02 0.21086579320E+02 0.30434666018E+02
 0.41503624934E+02 0.53716565305E+02 0.66458140704E+02 0.78696976644E+02 0.88709880981E+02
 0.10085964044E+03 0.97597465410E+02 0.88710952274E+02 0.76357476330E+02 0.62791169042E+02
 0.49521751795E+02 0.37300311529E+02 0.26612040396E+02 0.17990507316E+02 0.11844051689E+02
 0.80800578947E+01 0.59853242469E+01 0.47229917113E+01 0.40572974850E+01 0.38544864502E+01
 0.40572974850E+01 0.47229917113E+01 0.59853242469E+01 0.80800578947E+01 0.11844051689E+02
 0.17990507316E+02 0.26612040396E+02 0.37300311529E+02 0.49521751795E+02 0.62791169042E+02
 0.76357476330E+02 0.88710952274E+02 0.97597465410E+02 0.91458584769E+02 0.83311647735E+02
 0.71916129122E+02 0.59286959626E+02 0.46812748083E+02 0.35250762451E+02 0.25137075439E+02
 0.17020090639E+02 0.11276927724E+02 0.77796132290E+01 0.58113445893E+01 0.46120611414E+01
 0.39807079556E+01 0.37879197916E+01 0.39807211058E+01 0.46120749891E+01 0.58113448731E+01
 0.77795963994E+01 0.11276904000E+02 0.17020076257E+02 0.25137076492E+02 0.35250767759E+02
 0.46812732599E+02 0.59286904835E+02 0.71916037947E+02 0.83311549280E+02 0.91458520738E+02
 0.94440517511E+02 0.83312613171E+02 0.73866419065E+02 0.62308364657E+02 0.50278400234E+02
 0.38778380374E+02 0.28414068317E+02 0.19728277336E+02 0.13196098705E+02 0.89324855591E+01
 0.64820682175E+01 0.50166022697E+01 0.41625305175E+01 0.37840528495E+01 0.37832741728E+01
 0.41617442939E+01 0.50173723601E+01 0.64828618307E+01 0.89317233079E+01 0.13195284578E+02
 0.19728998791E+02 0.28414868570E+02 0.38777696906E+02 0.50277638724E+02 0.62308999044E+02
 0.73867001554E+02 0.83311721141E+02 0.88709874182E+02 0.88710679168E+02 0.71916576851E+02
 0.62308743221E+02 0.51484428007E+02 0.40639532086E+02 0.30533547380E+02 0.21752641100E+02