   1   1   0   0
  0.1655346E+02  0.2860671E-09  0.2860671E-09  0.2860671E-09  0.5000000E-15
  1.000000000000000E-004
  CAR 
 unknown system                          
     31.95730394     -0.19839150  301      7.97424935      1.00000000
     -0.198  0.0000E+00  0.0000E+00
     -0.091  0.0000E+00  0.0000E+00
      0.016  0.0000E+00  0.0000E+00
      0.123 -0.1489E-32 -0.1595E-33
      0.230 -0.8431E-29 -0.9038E-30
      0.338 -0.2676E-25 -0.2869E-26
      0.445 -0.4756E-22 -0.5101E-23
      0.552 -0.4729E-19 -0.5074E-20
      0.659 -0.2546E-16 -0.2734E-17
      0.766 -0.7839E-14 -0.8430E-15
      0.873 -0.1339E-11 -0.1443E-12
      0.981 -0.1263E-09 -0.1368E-10
      1.088 -0.6521E-08 -0.7127E-09
      1.195 -0.1819E-06 -0.2021E-07
      1.302 -0.2663E-05 -0.3056E-06
      1.409 -0.1914E-04 -0.2358E-05
      1.517 -0.5329E-04 -0.8069E-05
      1.624  0.4560E-04 -0.3181E-05
      1.731  0.5108E-03  0.5157E-04
      1.838  0.8942E-03  0.1474E-03
      1.945  0.8289E-03  0.2363E-03
      2.053  0.1584E-02  0.4061E-03
      2.160  0.2870E-02  0.7136E-03
      2.267  0.2581E-02  0.9903E-03
      2.374  0.2207E-02  0.1227E-02
      2.481  0.2799E-02  0.1527E-02
      2.588  0.2674E-02  0.1814E-02
      2.696  0.3037E-02  0.2139E-02
      2.803  0.3854E-02  0.2552E-02
      2.910  0.4295E-02  0.3013E-02
      3.017  0.6130E-02  0.3670E-02
      3.124  0.6842E-02  0.4403E-02
      3.232  0.4174E-02  0.4850E-02
      3.339  0.2390E-02  0.5106E-02
      3.446  0.7565E-02  0.5917E-02
      3.553  0.1897E-01  0.7951E-02
      3.660  0.3250E-01  0.1143E-01
      3.767  0.4610E-01  0.1638E-01
      3.875  0.5533E-01  0.2231E-01
      3.982  0.6759E-01  0.2955E-01
      4.089  0.8692E-01  0.3887E-01
      4.196  0.9102E-01  0.4862E-01
      4.303  0.7981E-01  0.5718E-01
      4.411  0.7460E-01  0.6517E-01
      4.518  0.7183E-01  0.7287E-01
      4.625  0.6255E-01  0.7958E-01
      4.732  0.5177E-01  0.8513E-01
      4.839  0.5568E-01  0.9110E-01
      4.947  0.6721E-01  0.9830E-01
      5.054  0.6590E-01  0.1054E+00
      5.161  0.6090E-01  0.1119E+00
      5.268  0.6236E-01  0.1186E+00
      5.375  0.6674E-01  0.1257E+00
      5.482  0.7348E-01  0.1336E+00
      5.590  0.8214E-01  0.1424E+00
      5.697  0.9066E-01  0.1521E+00
      5.804  0.1002E+00  0.1629E+00
      5.911  0.1101E+00  0.1747E+00
      6.018  0.1062E+00  0.1860E+00
      6.126  0.8611E-01  0.1953E+00
      6.233  0.7061E-01  0.2028E+00
      6.340  0.7003E-01  0.2104E+00
      6.447  0.6727E-01  0.2176E+00
      6.554  0.5668E-01  0.2236E+00
      6.661  0.6004E-01  0.2301E+00
      6.769  0.8129E-01  0.2388E+00
      6.876  0.9273E-01  0.2487E+00
      6.983  0.7912E-01  0.2572E+00
      7.090  0.6609E-01  0.2643E+00
      7.197  0.7147E-01  0.2720E+00
      7.305  0.7163E-01  0.2796E+00
      7.412  0.6068E-01  0.2861E+00
      7.519  0.6350E-01  0.2929E+00
      7.626  0.7444E-01  0.3009E+00
      7.733  0.7958E-01  0.3094E+00
      7.841  0.9377E-01  0.3195E+00
      7.948  0.1050E+00  0.3307E+00
      8.055  0.8601E-01  0.3400E+00
      8.162  0.5506E-01  0.3459E+00
      8.269  0.3037E-01  0.3491E+00
      8.376  0.1246E-01  0.3505E+00
      8.484  0.5583E-02  0.3511E+00
      8.591  0.5487E-02  0.3516E+00
      8.698  0.4439E-02  0.3521E+00
      8.805  0.2483E-02  0.3524E+00
      8.912  0.4280E-02  0.3528E+00
      9.020  0.1104E-01  0.3540E+00
      9.127  0.1608E-01  0.3558E+00
      9.234  0.1397E-01  0.3573E+00
      9.341  0.1048E-01  0.3584E+00
      9.448  0.7085E-02  0.3591E+00
      9.556  0.2488E-02  0.3594E+00
      9.663  0.1805E-02  0.3596E+00
      9.770  0.5962E-02  0.3602E+00
      9.877  0.1184E-01  0.3615E+00
      9.984  0.1732E-01  0.3634E+00
     10.091  0.1759E-01  0.3652E+00
     10.199  0.1011E-01  0.3663E+00
     10.306  0.4385E-02  0.3668E+00
     10.413  0.5256E-02  0.3674E+00
     10.520  0.6870E-02  0.3681E+00
     10.627  0.7976E-02  0.3690E+00
     10.735  0.8112E-02  0.3698E+00
     10.842  0.7435E-02  0.3706E+00
     10.949  0.8221E-02  0.3715E+00
     11.056  0.8372E-02  0.3724E+00
     11.163  0.7142E-02  0.3732E+00
     11.270  0.7376E-02  0.3740E+00
     11.378  0.1317E-01  0.3754E+00
     11.485  0.2125E-01  0.3776E+00
     11.592  0.1916E-01  0.3797E+00
     11.699  0.7768E-02  0.3805E+00
     11.806  0.1168E-03  0.3805E+00
     11.914  0.5439E-03  0.3806E+00
     12.021  0.4517E-02  0.3811E+00
     12.128  0.5445E-02  0.3817E+00
     12.235  0.3893E-02  0.3821E+00
     12.342  0.7503E-02  0.3829E+00
     12.450  0.1492E-01  0.3845E+00
     12.557  0.1739E-01  0.3864E+00
     12.664  0.1255E-01  0.3877E+00
     12.771  0.5496E-02  0.3883E+00
     12.878  0.2125E-02  0.3885E+00
     12.985  0.3060E-02  0.3888E+00
     13.093  0.5878E-02  0.3895E+00
     13.200  0.9128E-02  0.3905E+00
     13.307  0.1018E-01  0.3915E+00
     13.414  0.8214E-02  0.3924E+00
     13.521  0.5366E-02  0.3930E+00
     13.629  0.5157E-02  0.3936E+00
     13.736  0.5780E-02  0.3942E+00
     13.843  0.3745E-02  0.3946E+00
     13.950  0.2362E-02  0.3948E+00
     14.057  0.2392E-02  0.3951E+00
     14.164  0.3363E-02  0.3954E+00
     14.272  0.7580E-02  0.3963E+00
     14.379  0.1149E-01  0.3975E+00
     14.486  0.1236E-01  0.3988E+00
     14.593  0.1282E-01  0.4002E+00
     14.700  0.1168E-01  0.4014E+00
     14.808  0.1029E-01  0.4025E+00
     14.915  0.1125E-01  0.4037E+00
     15.022  0.1312E-01  0.4052E+00
     15.129  0.1230E-01  0.4065E+00
     15.236  0.9109E-02  0.4074E+00
     15.344  0.9087E-02  0.4084E+00
     15.451  0.9941E-02  0.4095E+00
     15.558  0.1243E-01  0.4108E+00
     15.665  0.1825E-01  0.4128E+00
     15.772  0.1821E-01  0.4147E+00
     15.879  0.9572E-02  0.4158E+00
     15.987  0.1977E-02  0.4160E+00
     16.094  0.1945E-02  0.4162E+00
     16.201  0.5787E-02  0.4168E+00
     16.308  0.9211E-02  0.4178E+00
     16.415  0.1341E-01  0.4192E+00
     16.523  0.1474E-01  0.4208E+00
     16.630  0.9825E-02  0.4219E+00
     16.737  0.7304E-02  0.4226E+00
     16.844  0.1140E-01  0.4239E+00
     16.951  0.1389E-01  0.4253E+00
     17.058  0.1209E-01  0.4266E+00
     17.166  0.7236E-02  0.4274E+00
     17.273  0.2289E-02  0.4277E+00
     17.380  0.3203E-02  0.4280E+00
     17.487  0.8000E-02  0.4289E+00
     17.594  0.1160E-01  0.4301E+00
     17.702  0.1399E-01  0.4316E+00
     17.809  0.1528E-01  0.4332E+00
     17.916  0.1421E-01  0.4348E+00
     18.023  0.1475E-01  0.4363E+00
     18.130  0.2282E-01  0.4388E+00
     18.238  0.2935E-01  0.4419E+00
     18.345  0.2125E-01  0.4442E+00
     18.452  0.9505E-02  0.4452E+00
     18.559  0.9865E-02  0.4463E+00
     18.666  0.1379E-01  0.4478E+00
     18.773  0.1114E-01  0.4490E+00
     18.881  0.9200E-02  0.4500E+00
     18.988  0.1402E-01  0.4515E+00
     19.095  0.1788E-01  0.4534E+00
     19.202  0.1803E-01  0.4553E+00
     19.309  0.1889E-01  0.4573E+00
     19.417  0.1744E-01  0.4592E+00
     19.524  0.1066E-01  0.4603E+00
     19.631  0.4015E-02  0.4608E+00
     19.738  0.5178E-02  0.4613E+00
     19.845  0.1403E-01  0.4628E+00
     19.953  0.2777E-01  0.4658E+00
     20.060  0.3572E-01  0.4696E+00
     20.167  0.2618E-01  0.4724E+00
     20.274  0.1238E-01  0.4738E+00
     20.381  0.9227E-02  0.4748E+00
     20.488  0.1026E-01  0.4759E+00
     20.596  0.1240E-01  0.4772E+00
     20.703  0.1851E-01  0.4792E+00
     20.810  0.2527E-01  0.4819E+00
     20.917  0.2853E-01  0.4849E+00
     21.024  0.2420E-01  0.4875E+00
     21.132  0.1753E-01  0.4894E+00
     21.239  0.1577E-01  0.4911E+00
     21.346  0.1609E-01  0.4928E+00
     21.453  0.1716E-01  0.4947E+00
     21.560  0.1778E-01  0.4966E+00
     21.667  0.1394E-01  0.4981E+00
     21.775  0.9407E-02  0.4991E+00
     21.882  0.8211E-02  0.5000E+00
     21.989  0.9503E-02  0.5010E+00
     22.096  0.1639E-01  0.5027E+00
     22.203  0.2583E-01  0.5055E+00
     22.311  0.2676E-01  0.5084E+00
     22.418  0.2189E-01  0.5107E+00
     22.525  0.2230E-01  0.5131E+00
     22.632  0.2354E-01  0.5156E+00
     22.739  0.1994E-01  0.5178E+00
     22.847  0.1738E-01  0.5196E+00
     22.954  0.1544E-01  0.5213E+00
     23.061  0.1307E-01  0.5227E+00
     23.168  0.1239E-01  0.5240E+00
     23.275  0.1602E-01  0.5257E+00
     23.382  0.2456E-01  0.5284E+00
     23.490  0.2849E-01  0.5314E+00
     23.597  0.2183E-01  0.5338E+00
     23.704  0.1014E-01  0.5348E+00
     23.811  0.3423E-02  0.5352E+00
     23.918  0.7431E-02  0.5360E+00
     24.026  0.1729E-01  0.5379E+00
     24.133  0.2416E-01  0.5404E+00
     24.240  0.2441E-01  0.5431E+00
     24.347  0.2243E-01  0.5455E+00
     24.454  0.2085E-01  0.5477E+00
     24.561  0.1797E-01  0.5496E+00
     24.669  0.1951E-01  0.5517E+00
     24.776  0.2295E-01  0.5542E+00
     24.883  0.2297E-01  0.5566E+00
     24.990  0.2235E-01  0.5590E+00
     25.097  0.1861E-01  0.5610E+00
     25.205  0.1655E-01  0.5628E+00
     25.312  0.2026E-01  0.5650E+00
     25.419  0.2041E-01  0.5672E+00
     25.526  0.1628E-01  0.5689E+00
     25.633  0.1418E-01  0.5704E+00
     25.741  0.1400E-01  0.5719E+00
     25.848  0.1250E-01  0.5733E+00
     25.955  0.1117E-01  0.5745E+00
     26.062  0.1489E-01  0.5761E+00
     26.169  0.2138E-01  0.5784E+00
     26.276  0.1992E-01  0.5805E+00
     26.384  0.9217E-02  0.5815E+00
     26.491  0.2062E-02  0.5817E+00
     26.598  0.4248E-02  0.5822E+00
     26.705  0.7910E-02  0.5830E+00
     26.812  0.5596E-02  0.5836E+00
     26.920  0.2971E-02  0.5839E+00
     27.027  0.9068E-02  0.5849E+00
     27.134  0.1749E-01  0.5868E+00
     27.241  0.1768E-01  0.5887E+00
     27.348  0.1410E-01  0.5902E+00
     27.456  0.1070E-01  0.5913E+00
     27.563  0.6638E-02  0.5920E+00
     27.670  0.4907E-02  0.5926E+00
     27.777  0.4180E-02  0.5930E+00
     27.884  0.1862E-02  0.5932E+00
     27.991  0.4471E-04  0.5932E+00
     28.099  0.1618E-02  0.5934E+00
     28.206  0.6059E-02  0.5940E+00
     28.313  0.8615E-02  0.5950E+00
     28.420  0.7912E-02  0.5958E+00
     28.527  0.7677E-02  0.5966E+00
     28.635  0.8351E-02  0.5975E+00
     28.742  0.8273E-02  0.5984E+00
     28.849  0.5912E-02  0.5990E+00
     28.956  0.2062E-02  0.5993E+00
     29.063 -0.7958E-04  0.5993E+00
     29.170  0.6720E-04  0.5993E+00
     29.278  0.8291E-03  0.5993E+00
     29.385  0.1022E-02  0.5995E+00
     29.492  0.9831E-03  0.5996E+00
     29.599  0.1002E-02  0.5997E+00
     29.706  0.5632E-03  0.5997E+00
     29.814  0.2570E-03  0.5998E+00
     29.921  0.7094E-03  0.5998E+00
     30.028  0.1023E-02  0.5999E+00
     30.135  0.5555E-03  0.6000E+00
     30.242  0.5155E-04  0.6000E+00
     30.350 -0.5290E-04  0.6000E+00
     30.457 -0.1913E-04  0.6000E+00
     30.564 -0.2663E-05  0.6000E+00
     30.671 -0.1819E-06  0.6000E+00
     30.778 -0.6521E-08  0.6000E+00
     30.885 -0.1263E-09  0.6000E+00
     30.993 -0.1339E-11  0.6000E+00
     31.100 -0.7839E-14  0.6000E+00
     31.207 -0.2536E-16  0.6000E+00
     31.314  0.0000E+00  0.6000E+00
     31.421  0.0000E+00  0.6000E+00
     31.529  0.0000E+00  0.6000E+00
     31.636  0.0000E+00  0.6000E+00
     31.743  0.0000E+00  0.6000E+00
     31.850  0.0000E+00  0.6000E+00
     31.957  0.0000E+00  0.6000E+00
