    1    1   30    1
  0.1655346E+02  0.2860671E-09  0.2860671E-09  0.2860671E-09  0.5000000E-15
  1.000000000000000E-004
  CAR 
 unknown system                          
     10     60      9
 
  0.6250000E-01  0.6250000E-01  0.6250000E-01  0.3906250E-02
    1        1.801608
    2        5.569744
    3        5.651665
    4        5.651665
    5        6.927726
    6        6.927726
    7       25.133812
    8       28.224566
    9       29.272538
 
  0.1875000E+00  0.6250000E-01  0.6250000E-01  0.1171875E-01
    1        2.445129
    2        5.376907
    3        5.829980
    4        5.851910
    5        6.747996
    6        7.026689
    7       24.994835
    8       26.033972
    9       28.714126
 
  0.3125000E+00  0.6250000E-01  0.6250000E-01  0.1171875E-01
    1        3.484525
    2        5.573916
    3        5.872204
    4        5.900024
    5        6.950407
    6        7.493562
    7       20.835159
    8       25.506333
    9       28.423137
 
  0.4375000E+00  0.6250000E-01  0.6250000E-01  0.1171875E-01
    1        3.641117
    2        5.609972
    3        5.706616
    4        7.082078
    5        7.592060
    6        8.627768
    7       16.446695
    8       24.658714
    9       27.270927
 
 -0.4375000E+00  0.6250000E-01  0.6250000E-01  0.1171875E-01
    1        3.591027
    2        5.519262
    3        5.653349
    4        7.445860
    5        7.942970
    6        9.705869
    7       14.527810
    8       24.400574
    9       27.379925
 
 -0.3125000E+00  0.6250000E-01  0.6250000E-01  0.1171875E-01
    1        3.654005
    2        5.655078
    3        5.795781
    4        6.500316
    5        7.697709
    6        7.919040
    7       17.817999
    8       25.023047
    9       27.732805
 
 -0.1875000E+00  0.6250000E-01  0.6250000E-01  0.1171875E-01
    1        3.191962
    2        5.352955
    3        5.894595
    4        5.938905
    5        6.895787
    6        7.195542
    7       22.358911
    8       25.955446
    9       28.509339
 
 -0.6250000E-01  0.6250000E-01  0.6250000E-01  0.1171875E-01
    1        2.134384
    2        5.424666
    3        5.778245
    4        5.782661
    5        6.771686
    6        7.005419
    7       25.332517
    8       27.080863
    9       28.783484
 
  0.1875000E+00  0.1875000E+00  0.6250000E-01  0.1171875E-01
    1        2.751220
    2        5.144770
    3        6.016578
    4        6.039127
    5        6.566203
    6        7.151152
    7       25.354835
    8       26.261837
    9       27.595623
 
  0.3125000E+00  0.1875000E+00  0.6250000E-01  0.2343750E-01
    1        3.700582
    2        4.896522
    3        5.855213
    4        6.355501
    5        6.885604
    6        7.598476
    7       22.779658
    8       24.687919
    9       27.122687
 
  0.4375000E+00  0.1875000E+00  0.6250000E-01  0.2343750E-01
    1        4.064763
    2        5.352053
    3        5.642485
    4        6.239584
    5        7.675696
    6        9.094784
    7       18.167394
    8       24.134288
    9       25.284484
 
 -0.4375000E+00  0.1875000E+00  0.6250000E-01  0.2343750E-01
    1        4.015303
    2        5.206501
    3        6.047978
    4        6.373734
    5        7.887802
    6       11.415392
    7       14.605490
    8       23.604078
    9       24.705342
 
 -0.3125000E+00  0.1875000E+00  0.6250000E-01  0.2343750E-01
    1        4.112013
    2        5.326819
    3        5.953162
    4        6.186919
    5        7.501603
    6       10.020335
    7       16.813181
    8       23.057399
    9       25.635211
 
 -0.1875000E+00  0.1875000E+00  0.6250000E-01  0.2343750E-01
    1        4.036735
    2        5.064377
    3        5.693484
    4        6.318893
    5        6.751076
    6        8.221104
    7       21.261127
    8       23.335863
    9       27.373467
 
 -0.6250000E-01  0.1875000E+00  0.6250000E-01  0.2343750E-01
    1        3.016964
    2        5.180748
    3        5.937358
    4        6.037958
    5        6.649017
    6        7.244659
    7       23.979066
    8       25.485862
    9       28.243954
 
  0.3125000E+00  0.3125000E+00  0.6250000E-01  0.1171875E-01
    1        3.938327
    2        4.442717
    3        6.412881
    4        6.841507
    5        7.371080
    6        7.566124
    7       23.107882
    8       24.158547
    9       24.777809
 
  0.4375000E+00  0.3125000E+00  0.6250000E-01  0.2343750E-01
    1        4.077445
    2        4.314150
    3        6.330499
    4        7.192268
    5        7.736646
    6        9.354836
    7       20.335128
    8       22.192595
    9       22.488925
 
 -0.4375000E+00  0.3125000E+00  0.6250000E-01  0.2343750E-01
    1        4.172370
    2        4.680889
    3        6.006126
    4        6.890287
    5        7.951521
    6       12.453683
    7       16.171065
    8       20.428356
    9       22.580963
 
 -0.3125000E+00  0.3125000E+00  0.6250000E-01  0.2343750E-01
    1        4.545137
    2        5.037712
    3        5.533189
    4        6.677708
    5        7.535462
    6       12.636435
    7       16.486452
    8       19.057963
    9       24.138791
 
 -0.1875000E+00  0.3125000E+00  0.6250000E-01  0.2343750E-01
    1        4.593498
    2        5.186690
    3        5.368439
    4        6.483192
    5        7.100230
    6       10.073944
    7       18.723917
    8       20.891606
    9       25.773376
 
 -0.6250000E-01  0.3125000E+00  0.6250000E-01  0.2343750E-01
    1        3.805821
    2        5.617126
    3        5.728406
    4        6.004556
    5        7.244309
    6        8.078446
    7       19.441144
    8       24.900582
    9       27.054893
 
  0.4375000E+00  0.4375000E+00  0.6250000E-01  0.1171875E-01
    1        3.688715
    2        3.902795
    3        7.613729
    4        7.656970
    5        7.991612
    6       10.024264
    7       19.750305
    8       20.709057
    9       21.420732
 
 -0.4375000E+00  0.4375000E+00  0.6250000E-01  0.2343750E-01
    1        3.739413
    2        3.972855
    3        7.198326
    4        7.634595
    5        8.129446
    6       12.353014
    7       17.832121
    8       19.013371
    9       20.666606
 
 -0.3125000E+00  0.4375000E+00  0.6250000E-01  0.2343750E-01
    1        4.110843
    2        4.557533
    3        6.193210
    4        7.113534
    5        7.910761
    6       14.269130
    7       15.675859
    8       18.259761
    9       22.200484
 
 -0.1875000E+00  0.4375000E+00  0.6250000E-01  0.2343750E-01
    1        4.329126
    2        5.017273
    3        5.933342
    4        6.375765
    5        7.748927
    6       12.514212
    7       14.833531
    8       21.418511
    9       24.275241
 
 -0.6250000E-01  0.4375000E+00  0.6250000E-01  0.2343750E-01
    1        3.768207
    2        5.437024
    3        5.809862
    4        6.806279
    5        7.830697
    6        9.885689
    7       15.342040
    8       24.367727
    9       26.142893
 
 -0.4375000E+00 -0.4375000E+00  0.6250000E-01  0.1171875E-01
    1        3.550250
    2        3.782124
    3        7.834441
    4        7.923250
    5        8.146414
    6       11.401400
    7       17.887365
    8       20.082705
    9       20.781833
 
 -0.3125000E+00 -0.4375000E+00  0.6250000E-01  0.2343750E-01
    1        3.877579
    2        4.089075
    3        6.839629
    4        7.532325
    5        7.968461
    6       10.910403
    7       19.237932
    8       20.078523
    9       21.220317
 
 -0.1875000E+00 -0.4375000E+00  0.6250000E-01  0.2343750E-01
    1        4.187560
    2        4.959917
    3        5.776287
    4        6.560878
    5        7.903941
    6       10.613180
    7       17.045669
    8       22.907427
    9       23.314594
 
 -0.3125000E+00 -0.3125000E+00  0.6250000E-01  0.1171875E-01
    1        3.891954
    2        4.131855
    3        7.058901
    4        7.293687
    5        7.786200
    6        8.486805
    7       21.739444
    8       22.345252
    9       22.597380
 
 -0.1875000E+00 -0.3125000E+00  0.6250000E-01  0.2343750E-01
    1        4.129015
    2        4.598223
    3        5.894430
    4        6.755821
    5        7.372825
    6        8.210277
    7       21.541442
    8       23.476037
    9       24.980212
 
 -0.1875000E+00 -0.1875000E+00  0.6250000E-01  0.1171875E-01
    1        3.489366
    2        4.796997
    3        6.130621
    4        6.403218
    5        6.723263
    6        7.346267
    7       24.418656
    8       25.916685
    9       26.189106
 
  0.1875000E+00  0.1875000E+00  0.1875000E+00  0.3906250E-02
    1        2.713628
    2        5.416767
    3        5.851905
    4        5.851905
    5        6.918917
    6        6.918917
    7       23.730308
    8       26.075191
    9       29.957304
 
  0.3125000E+00  0.1875000E+00  0.1875000E+00  0.1171875E-01
    1        3.490572
    2        5.170337
    3        5.885596
    4        6.118322
    5        6.577422
    6        7.626150
    7       22.569852
    8       24.457561
    9       28.604904
 
  0.4375000E+00  0.1875000E+00  0.1875000E+00  0.1171875E-01
    1        4.355294
    2        5.191868
    3        5.631368
    4        6.272383
    5        6.783240
    6        9.028409
    7       19.914759
    8       22.050017
    9       27.169367
 
 -0.4375000E+00  0.1875000E+00  0.1875000E+00  0.1171875E-01
    1        4.195846
    2        5.210523
    3        6.138100
    4        6.151118
    5        7.556971
    6       11.154033
    7       15.684093
    8       22.112444
    9       26.189702
 
 -0.3125000E+00  0.1875000E+00  0.1875000E+00  0.1171875E-01
    1        4.067372
    2        5.155554
    3        6.062630
    4        6.212683
    5        7.981330
    6       11.025600
    7       15.530272
    8       23.160462
    9       25.167578
 
 -0.1875000E+00  0.1875000E+00  0.1875000E+00  0.1171875E-01
    1        4.066719
    2        4.945738
    3        5.761166
    4        6.400232
    5        7.786242
    6        8.381063
    7       19.757060
    8       24.812893
    9       24.969208
 
  0.3125000E+00  0.3125000E+00  0.1875000E+00  0.1171875E-01
    1        3.731420
    2        5.191977
    3        5.773295
    4        6.121803
    5        7.368865
    6        7.505934
    7       21.033728
    8       25.730565
    9       26.692081
 
  0.4375000E+00  0.3125000E+00  0.1875000E+00  0.2343750E-01
    1        4.403494
    2        4.922532
    3        5.453542
    4        6.661618
    5        7.177514
    6        9.094563
    7       20.042370
    8       22.174945
    9       25.259948
 
 -0.4375000E+00  0.3125000E+00  0.1875000E+00  0.2343750E-01
    1        4.745330
    2        4.923374
    3        5.262674
    4        6.777269
    5        7.504148
    6       11.465986
    7       17.682066
    8       19.947095
    9       23.378112
 
 -0.3125000E+00  0.3125000E+00  0.1875000E+00  0.2343750E-01
    1        4.502001
    2        4.823912
    3        5.641236
    4        6.690534
    5        7.857997
    6       13.379982
    7       15.034160
    8       20.927332
    9       21.843495
 
 -0.1875000E+00  0.3125000E+00  0.1875000E+00  0.2343750E-01
    1        4.387488
    2        4.667003
    3        5.637249
    4        7.035400
    5        7.579761
    6       10.384747
    7       18.942206
    8       21.094071
    9       22.809165
 
  0.4375000E+00  0.4375000E+00  0.1875000E+00  0.1171875E-01
    1        4.078478
    2        4.608835
    3        6.120679
    4        6.750799
    5        7.978705
    6        9.815931
    7       18.579742
    8       22.607331
    9       23.541826
 
 -0.4375000E+00  0.4375000E+00  0.1875000E+00  0.2343750E-01
    1        4.208863
    2        4.437566
    3        6.020946
    4        7.251987
    5        7.904371
    6       12.040410
    7       18.054371
    8       19.987439
    9       20.625065
 
 -0.3125000E+00  0.4375000E+00  0.1875000E+00  0.2343750E-01
    1        4.383264
    2        4.837673
    3        5.511916
    4        6.940872
    5        8.121107
    6       15.058623
    7       16.366692
    8       18.182988
    9       19.384172
 
 -0.1875000E+00  0.4375000E+00  0.1875000E+00  0.2343750E-01
    1        4.559726
    2        4.845832
    3        5.373670
    4        6.928081
    5        7.876925
    6       13.206010
    7       16.850607
    8       19.240307
    9       20.906228
 
 -0.4375000E+00 -0.4375000E+00  0.1875000E+00  0.1171875E-01
    1        3.852976
    2        4.201212
    3        6.845814
    4        7.406005
    5        8.000471
    6       13.115702
    7       17.046584
    8       18.191623
    9       21.994585
 
 -0.3125000E+00 -0.4375000E+00  0.1875000E+00  0.2343750E-01
    1        4.066888
    2        4.335775
    3        6.318604
    4        7.269213
    5        8.123099
    6       13.667307
    7       17.434945
    8       18.256713
    9       19.990633
 
 -0.3125000E+00 -0.3125000E+00  0.1875000E+00  0.1171875E-01
    1        3.955691
    2        4.336592
    3        6.562569
    4        7.119899
    5        8.044232
    6       11.531445
    7       17.629036
    8       20.140945
    9       22.524369
 
  0.3125000E+00  0.3125000E+00  0.3125000E+00  0.3906250E-02
    1        3.528949
    2        5.780539
    3        5.780539
    4        6.272886
    5        7.351320
    6        7.351320
    7       19.236572
    8       25.356806
    9       29.544168
 
  0.4375000E+00  0.3125000E+00  0.3125000E+00  0.1171875E-01
    1        3.932006
    2        5.539701
    3        5.942223
    4        6.110171
    5        7.204030
    6        8.892590
    7       18.037648
    8       23.945432
    9       26.703694
 
 -0.4375000E+00  0.3125000E+00  0.3125000E+00  0.1171875E-01
    1        4.596514
    2        5.175337
    3        5.538243
    4        6.457463
    5        7.238666
    6       11.219107
    7       17.551750
    8       19.818160
    9       26.596806
 
 -0.3125000E+00  0.3125000E+00  0.3125000E+00  0.1171875E-01
    1        4.265754
    2        4.871436
    3        5.902529
    4        6.866004
    5        7.677521
    6       13.980963
    7       15.340901
    8       18.518792
    9       24.117253
 
  0.4375000E+00  0.4375000E+00  0.3125000E+00  0.1171875E-01
    1        3.848912
    2        5.433767
    3        5.945196
    4        6.265897
    5        7.922492
    6        9.296377
    7       16.573485
    8       24.638228
    9       26.260662
 
 -0.4375000E+00  0.4375000E+00  0.3125000E+00  0.2343750E-01
    1        4.330326
    2        5.032451
    3        5.799837
    4        6.419081
    5        7.758535
    6       11.548764
    7       15.780995
    8       22.312541
    9       23.471475
 
 -0.3125000E+00  0.4375000E+00  0.3125000E+00  0.2343750E-01
    1        4.472683
    2        4.873084
    3        5.528686
    4        6.863795
    5        7.876801
    6       14.372100
    7       15.603946
    8       18.595835
    9       21.574610
 
 -0.4375000E+00 -0.4375000E+00  0.3125000E+00  0.1171875E-01
    1        4.224123
    2        4.942039
    3        5.947868
    4        6.554709
    5        7.871234
    6       12.935275
    7       14.811948
    8       20.796235
    9       24.459880
 
  0.4375000E+00  0.4375000E+00  0.4375000E+00  0.3906250E-02
    1        3.526346
    2        5.607092
    3        5.607092
    4        7.858176
    5        7.858176
    6        8.600071
    7       15.242085
    8       24.486055
    9       28.130313
 
 -0.4375000E+00  0.4375000E+00  0.4375000E+00  0.1171875E-01
    1        3.824418
    2        5.365573
    3        5.840607
    4        6.812615
    5        7.830168
    6       10.723302
    7       14.573168
    8       23.959577
    9       26.142125
