 vasp.5.3.5 31Mar14 (build Jan 09 2015 16:57:47) complex                        
  
 executed on             LinuxIFC date 2015.03.24  14:25:57
 serial version


--------------------------------------------------------------------------------------------------------


 INCAR:
 POTCAR:    PAW_PBE Pd 04Jan2005                  
 POTCAR:    PAW_PBE Pd 04Jan2005                  
   VRHFIN =Pd : s1 d9                                                           
   LEXCH  = PE                                                                  
   EATOM  =   809.7530 eV,   59.5152 Ry                                         
                                                                                
   TITEL  = PAW_PBE Pd 04Jan2005                                                
   LULTRA =        F    use ultrasoft PP ?                                      
   IUNSCR =        1    unscreen: 0-lin 1-nonlin 2-no                           
   RPACOR =    2.000    partial core radius                                     
   POMASS =  106.420; ZVAL   =   10.000    mass and valenz                      
   RCORE  =    2.600    outmost cutoff radius                                   
   RWIGS  =    2.710; RWIGS  =    1.434    wigner-seitz radius (au A)           
   ENMAX  =  250.925; ENMIN  =  188.194 eV                                      
   ICORE  =        3    local potential                                         
   LCOR   =        T    correct aug charges                                     
   LPAW   =        T    paw PP                                                  
   EAUG   =  416.230                                                            
   DEXC   =    0.000                                                            
   RMAX   =    2.653    core radius for proj-oper                               
   RAUG   =    1.300    factor for augmentation sphere                          
   RDEP   =    2.734    radius for radial grids                                 
   RDEPT  =    2.103    core radius for aug-charge                              
                                                                                
   Atomic configuration                                                         
   12 entries                                                                   
     n  l   j            E        occ.                                          
     1  0  0.50    -24164.6631   2.0000                                         
     2  0  0.50     -3530.9218   2.0000                                         
     2  1  1.50     -3165.6822   6.0000                                         
     3  0  0.50      -639.4577   2.0000                                         
     3  1  1.50      -519.4532   6.0000                                         
     3  2  2.50      -328.9757  10.0000                                         
     4  0  0.50       -88.7014   2.0000                                         
     4  1  1.50       -54.4540   6.0000                                         
     4  2  2.50        -6.6878   9.0000                                         
     5  0  0.50        -4.3543   1.0000                                         
     5  1  0.50        -1.3606   0.0000                                         
     4  3  2.50        -1.3606   0.0000                                         
   Description                                                                  
     l       E           TYP  RCUT    TYP  RCUT                                 
     2     -6.6878251     23  2.400                                             
     2     -8.0484077     23  2.400                                             
     0     -4.3542939     23  2.400                                             
     0      4.3406793     23  2.400                                             
     1     -4.0817478     23  2.600                                             
     1     15.8380318     23  2.600                                             
     3     -4.0817478     23  2.400                                             
  local pseudopotential read in
  partial core-charges read in
  partial kinetic energy density read in
  atomic valenz-charges read in
  non local Contribution for L=           2  read in
    real space projection operators read in
  non local Contribution for L=           2  read in
    real space projection operators read in
  non local Contribution for L=           0  read in
    real space projection operators read in
  non local Contribution for L=           0  read in
    real space projection operators read in
  non local Contribution for L=           1  read in
    real space projection operators read in
  non local Contribution for L=           1  read in
    real space projection operators read in
    PAW grid and wavefunctions read in
 
   number of l-projection  operators is LMAX  =           6
   number of lm-projection operators is LMMAX =          18
 
  PAW_PBE Pd 04Jan2005                  :
 energy of atom  1       EATOM= -809.7530
 kinetic energy error for atom=    0.0269 (will be added to EATOM!!)
 
 
 POSCAR: Pd                                      
  positions in cartesian coordinates
  No initial velocities read in
 exchange correlation table for  LEXCH =        8
   RHO(1)=    0.500       N(1)  =     2000
   RHO(2)=  100.500       N(2)  =     4000

 VTST: version 3.1, (03/28/14)

 CHAIN: initializing optimizer
 
 OPT: Using VASP Conjugate-Gradient optimizer
 CHAIN: Read ICHAIN            0
 
 POSCAR: Pd                                      
  positions in cartesian coordinates
  No initial velocities read in
 


--------------------------------------------------------------------------------------------------------


 ion  position               nearest neighbor table
   1  0.000  0.000  0.000-
 
  LATTYP: Found a face centered cubic cell.
 ALAT       =     4.0456000000
  
  Lattice vectors:
  
 A1 = (   2.8606711940,   0.0000000000,   0.0000000000)
 A2 = (   1.4303355970,   2.4774139259,   0.0000000000)
 A3 = (   1.4303355970,   0.8258046420,   2.3357282490)


Analysis of symmetry for initial positions (statically):
=====================================================================
 Subroutine PRICEL returns:
 Original cell was already a primitive cell.
 

 Routine SETGRP: Setting up the symmetry group for a 
 face centered cubic supercell.


 Subroutine GETGRP returns: Found 48 space group operations
 (whereof 48 operations were pure point group operations)
 out of a pool of 48 trial point group operations.


The static configuration has the point symmetry O_h .


Analysis of symmetry for dynamics (positions and initial velocities):
=====================================================================
 Subroutine PRICEL returns:
 Original cell was already a primitive cell.
 

 Routine SETGRP: Setting up the symmetry group for a 
 face centered cubic supercell.


 Subroutine GETGRP returns: Found 48 space group operations
 (whereof 48 operations were pure point group operations)
 out of a pool of 48 trial point group operations.


The dynamic configuration has the point symmetry O_h .
 
 
 KPOINTS: KPOINTS created by Atomic Simulation Env

Automatic generation of k-mesh.
Space group operators:
 irot       det(A)        alpha          n_x          n_y          n_z        tau_x        tau_y        tau_z
    1     1.000000     0.000001     1.000000     0.000000     0.000000     0.000000     0.000000     0.000000
    2    -1.000000     0.000001     1.000000     0.000000     0.000000     0.000000     0.000000     0.000000
    3     1.000000   120.000000    -0.816497    -0.471405    -0.333333     0.000000     0.000000     0.000000
    4    -1.000000   120.000000    -0.816497    -0.471405    -0.333333     0.000000     0.000000     0.000000
    5     1.000000   120.000000     0.816497     0.471405     0.333333     0.000000     0.000000     0.000000
    6    -1.000000   120.000000     0.816497     0.471405     0.333333     0.000000     0.000000     0.000000
    7     1.000000    90.000000    -0.707107    -0.408248     0.577350     0.000000     0.000000     0.000000
    8    -1.000000    90.000000    -0.707107    -0.408248     0.577350     0.000000     0.000000     0.000000
    9     1.000000   180.000000     1.000000     0.000000     0.000000     0.000000     0.000000     0.000000
   10    -1.000000   180.000000     1.000000     0.000000     0.000000     0.000000     0.000000     0.000000
   11     1.000000    90.000000     0.707107    -0.408248     0.577350     0.000000     0.000000     0.000000
   12    -1.000000    90.000000     0.707107    -0.408248     0.577350     0.000000     0.000000     0.000000
   13     1.000000   180.000000     0.707107     0.408248    -0.577350     0.000000     0.000000     0.000000
   14    -1.000000   180.000000     0.707107     0.408248    -0.577350     0.000000     0.000000     0.000000
   15     1.000000   120.000000     0.816497    -0.471405    -0.333333     0.000000     0.000000     0.000000
   16    -1.000000   120.000000     0.816497    -0.471405    -0.333333     0.000000     0.000000     0.000000
   17     1.000000   120.000000     0.000000    -0.942809     0.333333     0.000000     0.000000     0.000000
   18    -1.000000   120.000000     0.000000    -0.942809     0.333333     0.000000     0.000000     0.000000
   19     1.000000    90.000000     0.707107     0.408248    -0.577350     0.000000     0.000000     0.000000
   20    -1.000000    90.000000     0.707107     0.408248    -0.577350     0.000000     0.000000     0.000000
   21     1.000000    90.000000     0.000000    -0.816497    -0.577350     0.000000     0.000000     0.000000
   22    -1.000000    90.000000     0.000000    -0.816497    -0.577350     0.000000     0.000000     0.000000
   23     1.000000   180.000000     0.500000     0.866025     0.000000     0.000000     0.000000     0.000000
   24    -1.000000   180.000000     0.500000     0.866025     0.000000     0.000000     0.000000     0.000000
   25     1.000000   120.000000     0.000000     0.942809    -0.333333     0.000000     0.000000     0.000000
   26    -1.000000   120.000000     0.000000     0.942809    -0.333333     0.000000     0.000000     0.000000
   27     1.000000   120.000000     0.000000     0.000000    -1.000000     0.000000     0.000000     0.000000
   28    -1.000000   120.000000     0.000000     0.000000    -1.000000     0.000000     0.000000     0.000000
   29     1.000000   180.000000     0.000000    -0.816497    -0.577350     0.000000     0.000000     0.000000
   30    -1.000000   180.000000     0.000000    -0.816497    -0.577350     0.000000     0.000000     0.000000
   31     1.000000    90.000000    -0.707107     0.408248    -0.577350     0.000000     0.000000     0.000000
   32    -1.000000    90.000000    -0.707107     0.408248    -0.577350     0.000000     0.000000     0.000000
   33     1.000000   179.999999     0.500000     0.288675     0.816497     0.000000     0.000000     0.000000
   34    -1.000000   179.999999     0.500000     0.288675     0.816497     0.000000     0.000000     0.000000
   35     1.000000    90.000000     0.000000     0.816497     0.577350     0.000000     0.000000     0.000000
   36    -1.000000    90.000000     0.000000     0.816497     0.577350     0.000000     0.000000     0.000000
   37     1.000000   120.000000    -0.816497     0.471405     0.333333     0.000000     0.000000     0.000000
   38    -1.000000   120.000000    -0.816497     0.471405     0.333333     0.000000     0.000000     0.000000
   39     1.000000   179.999999    -0.707107     0.408248    -0.577350     0.000000     0.000000     0.000000
   40    -1.000000   179.999999    -0.707107     0.408248    -0.577350     0.000000     0.000000     0.000000
   41     1.000000   120.000000     0.000000     0.000000     1.000000     0.000000     0.000000     0.000000
   42    -1.000000   120.000000     0.000000     0.000000     1.000000     0.000000     0.000000     0.000000
   43     1.000000   179.999999     0.000000    -0.577350     0.816497     0.000000     0.000000     0.000000
   44    -1.000000   179.999999     0.000000    -0.577350     0.816497     0.000000     0.000000     0.000000
   45     1.000000   180.000000    -0.500000     0.866025     0.000000     0.000000     0.000000     0.000000
   46    -1.000000   180.000000    -0.500000     0.866025     0.000000     0.000000     0.000000     0.000000
   47     1.000000   179.999999    -0.500000     0.288675     0.816497     0.000000     0.000000     0.000000
   48    -1.000000   179.999999    -0.500000     0.288675     0.816497     0.000000     0.000000     0.000000
 
 Subroutine IBZKPT returns following result:
 ===========================================
 
 Found     60 irreducible k-points:
 
 Following reciprocal coordinates:
            Coordinates               Weight
  0.062500  0.062500  0.062500     96.000000
  0.187500  0.062500  0.062500    288.000000
  0.312500  0.062500  0.062500    288.000000
  0.437500  0.062500  0.062500    288.000000
 -0.437500  0.062500  0.062500    288.000000
 -0.312500  0.062500  0.062500    288.000000
 -0.187500  0.062500  0.062500    288.000000
 -0.062500  0.062500  0.062500    288.000000
  0.187500  0.187500  0.062500    288.000000
  0.312500  0.187500  0.062500    576.000000
  0.437500  0.187500  0.062500    576.000000
 -0.437500  0.187500  0.062500    576.000000
 -0.312500  0.187500  0.062500    576.000000
 -0.187500  0.187500  0.062500    576.000000
 -0.062500  0.187500  0.062500    576.000000
  0.312500  0.312500  0.062500    288.000000
  0.437500  0.312500  0.062500    576.000000
 -0.437500  0.312500  0.062500    576.000000
 -0.312500  0.312500  0.062500    576.000000
 -0.187500  0.312500  0.062500    576.000000
 -0.062500  0.312500  0.062500    576.000000
  0.437500  0.437500  0.062500    288.000000
 -0.437500  0.437500  0.062500    576.000000
 -0.312500  0.437500  0.062500    576.000000
 -0.187500  0.437500  0.062500    576.000000
 -0.062500  0.437500  0.062500    576.000000
 -0.437500 -0.437500  0.062500    288.000000
 -0.312500 -0.437500  0.062500    576.000000
 -0.187500 -0.437500  0.062500    576.000000
 -0.312500 -0.312500  0.062500    288.000000
 -0.187500 -0.312500  0.062500    576.000000
 -0.187500 -0.187500  0.062500    288.000000
  0.187500  0.187500  0.187500     96.000000
  0.312500  0.187500  0.187500    288.000000
  0.437500  0.187500  0.187500    288.000000
 -0.437500  0.187500  0.187500    288.000000
 -0.312500  0.187500  0.187500    288.000000
 -0.187500  0.187500  0.187500    288.000000
  0.312500  0.312500  0.187500    288.000000
  0.437500  0.312500  0.187500    576.000000
 -0.437500  0.312500  0.187500    576.000000
 -0.312500  0.312500  0.187500    576.000000
 -0.187500  0.312500  0.187500    576.000000
  0.437500  0.437500  0.187500    288.000000
 -0.437500  0.437500  0.187500    576.000000
 -0.312500  0.437500  0.187500    576.000000
 -0.187500  0.437500  0.187500    576.000000
 -0.437500 -0.437500  0.187500    288.000000
 -0.312500 -0.437500  0.187500    576.000000
 -0.312500 -0.312500  0.187500    288.000000
  0.312500  0.312500  0.312500     96.000000
  0.437500  0.312500  0.312500    288.000000
 -0.437500  0.312500  0.312500    288.000000
 -0.312500  0.312500  0.312500    288.000000
  0.437500  0.437500  0.312500    288.000000
 -0.437500  0.437500  0.312500    576.000000
 -0.312500  0.437500  0.312500    576.000000
 -0.437500 -0.437500  0.312500    288.000000
  0.437500  0.437500  0.437500     96.000000
 -0.437500  0.437500  0.437500    288.000000
 
 Following cartesian coordinates:
            Coordinates               Weight
  0.021848  0.012614  0.008919     96.000000
  0.065544 -0.012614 -0.008919    288.000000
  0.109240 -0.037842 -0.026758    288.000000
  0.152936 -0.063070 -0.044597    288.000000
 -0.152936  0.113526  0.080275    288.000000
 -0.109240  0.088298  0.062436    288.000000
 -0.065544  0.063070  0.044597    288.000000
 -0.021848  0.037842  0.026758    288.000000
  0.065544  0.037842 -0.026758    288.000000
  0.109240  0.012614 -0.044597    576.000000
  0.152936 -0.012614 -0.062436    576.000000
 -0.152936  0.163981  0.062436    576.000000
 -0.109240  0.138754  0.044597    576.000000
 -0.065544  0.113526  0.026758    576.000000
 -0.021848  0.088298  0.008919    576.000000
  0.109240  0.063070 -0.062436    288.000000
  0.152936  0.037842 -0.080275    576.000000
 -0.152936  0.214437  0.044597    576.000000
 -0.109240  0.189209  0.026758    576.000000
 -0.065544  0.163981  0.008919    576.000000
 -0.021848  0.138754 -0.008919    576.000000
  0.152936  0.088298 -0.098114    288.000000
 -0.152936  0.264893  0.026758    576.000000
 -0.109240  0.239665  0.008919    576.000000
 -0.065544  0.214437 -0.008919    576.000000
 -0.021848  0.189209 -0.026758    576.000000
 -0.152936 -0.088298  0.151630    288.000000
 -0.109240 -0.113526  0.133791    576.000000
 -0.065544 -0.138754  0.115952    576.000000
 -0.109240 -0.063070  0.115952    288.000000
 -0.065544 -0.088298  0.098114    576.000000
 -0.065544 -0.037842  0.080275    288.000000
  0.065544  0.037842  0.026758     96.000000
  0.109240  0.012614  0.008919    288.000000
  0.152936 -0.012614 -0.008919    288.000000
 -0.152936  0.163981  0.115952    288.000000
 -0.109240  0.138754  0.098114    288.000000
 -0.065544  0.113526  0.080275    288.000000
  0.109240  0.063070 -0.008919    288.000000
  0.152936  0.037842 -0.026758    576.000000
 -0.152936  0.214437  0.098114    576.000000
 -0.109240  0.189209  0.080275    576.000000
 -0.065544  0.163981  0.062436    576.000000
  0.152936  0.088298 -0.044597    288.000000
 -0.152936  0.264893  0.080275    576.000000
 -0.109240  0.239665  0.062436    576.000000
 -0.065544  0.214437  0.044597    576.000000
 -0.152936 -0.088298  0.205147    288.000000
 -0.109240 -0.113526  0.187308    576.000000
 -0.109240 -0.063070  0.169469    288.000000
  0.109240  0.063070  0.044597     96.000000
  0.152936  0.037842  0.026758    288.000000
 -0.152936  0.214437  0.151630    288.000000
 -0.109240  0.189209  0.133791    288.000000
  0.152936  0.088298  0.008919    288.000000
 -0.152936  0.264893  0.133791    576.000000
 -0.109240  0.239665  0.115952    576.000000
 -0.152936 -0.088298  0.258663    288.000000
  0.152936  0.088298  0.062436     96.000000
 -0.152936  0.264893  0.187308    288.000000
 


--------------------------------------------------------------------------------------------------------




 Dimension of arrays:
   k-points           NKPTS =     60   k-points in BZ     NKDIM =     60   number of bands    NBANDS=      9
   number of dos      NEDOS =    301   number of ions     NIONS =      1
   non local maximal  LDIM  =      6   non local SUM 2l+1 LMDIM =     18
   total plane-waves  NPLWV =   2744
   max r-space proj   IRMAX =      1   max aug-charges    IRDMAX=   8240
   dimension x,y,z NGX =    14 NGY =   14 NGZ =   14
   dimension x,y,z NGXF=    28 NGYF=   28 NGZF=   28
   support grid    NGXF=    28 NGYF=   28 NGZF=   28
   ions per type =               1
 NGX,Y,Z   is equivalent  to a cutoff of   8.14,  8.14,  8.14 a.u.
 NGXF,Y,Z  is equivalent  to a cutoff of  16.27, 16.27, 16.27 a.u.


 I would recommend the setting:
   dimension x,y,z NGX =    13 NGY =   13 NGZ =   13
 SYSTEM =  unknown system                          
 POSCAR =  Pd                                      

 Startparameter for this run:
   NWRITE =      2    write-flag & timer
   PREC   = normal    normal or accurate (medium, high low for compatibility)
   ISTART =      0    job   : 0-new  1-cont  2-samecut
   ICHARG =      2    charge: 1-file 2-atom 10-const
   ISPIN  =      1    spin polarized calculation?
   LNONCOLLINEAR =      F non collinear calculations
   LSORBIT =      F    spin-orbit coupling
   INIWAV =      1    electr: 0-lowe 1-rand  2-diag
   LASPH  =      F    aspherical Exc in radial PAW
   METAGGA=      F    non-selfconsistent MetaGGA calc.

 Electronic Relaxation 1
   ENCUT  =  350.0 eV  25.72 Ry    5.07 a.u.   4.36  4.36  4.36*2*pi/ulx,y,z
   ENINI  =  350.0     initial cutoff
   ENAUG  =  416.2 eV  augmentation charge cutoff
   NELM   =     60;   NELMIN=  2; NELMDL= -5     # of ELM steps 
   EDIFF  = 0.1E-03   stopping-criterion for ELM
   LREAL  =      F    real-space projection
   NLSPLINE    = F    spline interpolate recip. space projectors
   LCOMPAT=      F    compatible to vasp.4.4
   GGA_COMPAT  = T    GGA compatible to vasp.4.4-vasp.4.6
   LMAXPAW     = -100 max onsite density
   LMAXMIX     =    2 max onsite mixed and CHGCAR
   VOSKOWN=      0    Vosko Wilk Nusair interpolation
   ROPT   =    0.00000
 Ionic relaxation
   EDIFFG = 0.1E-02   stopping-criterion for IOM
   NSW    =     30    number of steps for IOM
   NBLOCK =      1;   KBLOCK =     30    inner block; outer block 
   IBRION =      2    ionic relax: 0-MD 1-quasi-New 2-CG
   NFREE  =      1    steps in history (QN), initial steepest desc. (CG)
   ISIF   =      2    stress and relaxation
   IWAVPR =     11    prediction:  0-non 1-charg 2-wave 3-comb
   ISYM   =      2    0-nonsym 1-usesym 2-fastsym
   LCORR  =      T    Harris-Foulkes like correction to forces

   POTIM  = 0.5000    time-step for ionic-motion
   TEIN   =    0.0    initial temperature
   TEBEG  =    0.0;   TEEND  =   0.0 temperature during run
   SMASS  =  -3.00    Nose mass-parameter (am)
   estimated Nose-frequenzy (Omega)   =  0.10E-29 period in steps =****** mass=  -0.187E-27a.u.
   SCALEE = 1.0000    scale energy and forces
   NPACO  =    256;   APACO  = 16.0  distance and # of slots for P.C.
   PSTRESS=    0.0 pullay stress

  Mass of Ions in am
   POMASS = 106.42
  Ionic Valenz
   ZVAL   =  10.00
  Atomic Wigner-Seitz radii
   RWIGS  =  -1.00
  virtual crystal weights 
   VCA    =   1.00
   NELECT =      10.0000    total number of electrons
   NUPDOWN=      -1.0000    fix difference up-down

 DOS related values:
   EMIN   =  10.00;   EMAX   =-10.00  energy-range for DOS
   EFERMI =   0.00
   ISMEAR =     1;   SIGMA  =   0.20  broadening in eV -4-tet -1-fermi 0-gaus

 Electronic relaxation 2 (details)
   IALGO  =     38    algorithm
   LDIAG  =      T    sub-space diagonalisation (order eigenvalues)
   LSUBROT=      F    optimize rotation matrix (better conditioning)
   TURBO    =      0    0=normal 1=particle mesh
   IRESTART =      0    0=no restart 2=restart with 2 vectors
   NREBOOT  =      0    no. of reboots
   NMIN     =      0    reboot dimension
   EREF     =   0.00    reference energy to select bands
   IMIX   =      4    mixing-type and parameters
     AMIX     =   0.40;   BMIX     =  1.00
     AMIX_MAG =   1.60;   BMIX_MAG =  1.00
     AMIN     =   0.10
     WC   =   100.;   INIMIX=   1;  MIXPRE=   1;  MAXMIX= -45

 Intra band minimization:
   WEIMIN = 0.0010     energy-eigenvalue tresh-hold
   EBREAK =  0.28E-05  absolut break condition
   DEPER  =   0.30     relativ break condition  

   TIME   =   0.40     timestep for ELM

  volume/ion in A,a.u.               =      16.55       111.71
  Fermi-wavevector in a.u.,A,eV,Ry     =   1.383923  2.615235 26.058456  1.915243
  Thomas-Fermi vector in A             =   2.508475
 
 Write flags
   LWAVE  =      T    write WAVECAR
   LCHARG =      T    write CHGCAR
   LVTOT  =      F    write LOCPOT, total local potential
   LVHAR  =      F    write LOCPOT, Hartree potential only
   LELF   =      F    write electronic localiz. function (ELF)
   LORBIT =      0    0 simple, 1 ext, 2 COOP (PROOUT)


 Dipole corrections
   LMONO  =      F    monopole corrections only (constant potential shift)
   LDIPOL =      F    correct potential (dipole corrections)
   IDIPOL =      0    1-x, 2-y, 3-z, 4-all directions 
   EPSILON=  1.0000000 bulk dielectric constant

 Exchange correlation treatment:
   GGA     =    --    GGA type
   LEXCH   =     8    internal setting for exchange type
   VOSKOWN=      0    Vosko Wilk Nusair interpolation
   LHFCALC =     F    Hartree Fock is set to
   LHFONE  =     F    Hartree Fock one center treatment
   AEXX    =    0.0000 exact exchange contribution

 Linear response parameters
   LEPSILON=     F    determine dielectric tensor
   LRPA    =     F    only Hartree local field effects (RPA)
   LNABLA  =     F    use nabla operator in PAW spheres
   LVEL    =     F    velocity operator in full k-point grid
   LINTERFAST=   F  fast interpolation
   KINTER  =     0    interpolate to denser k-point grid
   CSHIFT  =0.1000    complex shift for real part using Kramers Kronig
   OMEGAMAX=  -1.0    maximum frequency
   DEG_THRESHOLD= 0.2000000E-02 threshold for treating states as degnerate
   RTIME   =    0.100 relaxation time in fs

 Orbital magnetization related:
   ORBITALMAG=     F  switch on orbital magnetization
   LCHIMAG   =     F  perturbation theory with respect to B field
   DQ        =  0.001000  dq finite difference perturbation B field



--------------------------------------------------------------------------------------------------------


 conjugate gradient relaxation of ions
 charge density and potential will be updated during run
 non-spin polarized calculation
 Variant of blocked Davidson
 Davidson routine will perform the subspace rotation
 perform sub-space diagonalisation
    after iterative eigenvector-optimisation
 modified Broyden-mixing scheme, WC =      100.0
 initial mixing is a Kerker type mixing with AMIX =  0.4000 and BMIX =      1.0000
 Hartree-type preconditioning will be used
 using additional bands            4
 reciprocal scheme for non local part
 use partial core corrections
 calculate Harris-corrections to forces 
   (improved forces if not selfconsistent)
 use gradient corrections 
 use of overlap-Matrix (Vanderbilt PP)
 Methfessel and Paxton  Order N= 1 SIGMA  =   0.20


--------------------------------------------------------------------------------------------------------


  energy-cutoff  :      350.00
  volume of cell :       16.55
      direct lattice vectors                 reciprocal lattice vectors
     2.860671194  0.000000000  0.000000000     0.349568312 -0.201823359 -0.142710666
     1.430335597  2.477413926  0.000000000     0.000000000  0.403646718 -0.142710666
     1.430335597  0.825804642  2.335728249     0.000000000  0.000000000  0.428131997

  length of vectors
     2.860671194  2.860671194  2.860671194     0.428131997  0.428131997  0.428131997


 
 k-points in units of 2pi/SCALE and weight: KPOINTS created by Atomic Simulation Env
   0.02184802  0.01261396  0.00891942       0.004
   0.06554406 -0.01261396 -0.00891942       0.012
   0.10924010 -0.03784188 -0.02675825       0.012
   0.15293614 -0.06306980 -0.04459708       0.012
  -0.15293614  0.11352564  0.08027475       0.012
  -0.10924010  0.08829772  0.06243592       0.012
  -0.06554406  0.06306980  0.04459708       0.012
  -0.02184802  0.03784188  0.02675825       0.012
   0.06554406  0.03784188 -0.02675825       0.012
   0.10924010  0.01261396 -0.04459708       0.023
   0.15293614 -0.01261396 -0.06243592       0.023
  -0.15293614  0.16398148  0.06243592       0.023
  -0.10924010  0.13875356  0.04459708       0.023
  -0.06554406  0.11352564  0.02675825       0.023
  -0.02184802  0.08829772  0.00891942       0.023
   0.10924010  0.06306980 -0.06243592       0.012
   0.15293614  0.03784188 -0.08027475       0.023
  -0.15293614  0.21443732  0.04459708       0.023
  -0.10924010  0.18920940  0.02675825       0.023
  -0.06554406  0.16398148  0.00891942       0.023
  -0.02184802  0.13875356 -0.00891942       0.023
   0.15293614  0.08829772 -0.09811358       0.012
  -0.15293614  0.26489316  0.02675825       0.023
  -0.10924010  0.23966524  0.00891942       0.023
  -0.06554406  0.21443732 -0.00891942       0.023
  -0.02184802  0.18920940 -0.02675825       0.023
  -0.15293614 -0.08829772  0.15163008       0.012
  -0.10924010 -0.11352564  0.13379125       0.023
  -0.06554406 -0.13875356  0.11595242       0.023
  -0.10924010 -0.06306980  0.11595242       0.012
  -0.06554406 -0.08829772  0.09811358       0.023
  -0.06554406 -0.03784188  0.08027475       0.012
   0.06554406  0.03784188  0.02675825       0.004
   0.10924010  0.01261396  0.00891942       0.012
   0.15293614 -0.01261396 -0.00891942       0.012
  -0.15293614  0.16398148  0.11595242       0.012
  -0.10924010  0.13875356  0.09811358       0.012
  -0.06554406  0.11352564  0.08027475       0.012
   0.10924010  0.06306980 -0.00891942       0.012
   0.15293614  0.03784188 -0.02675825       0.023
  -0.15293614  0.21443732  0.09811358       0.023
  -0.10924010  0.18920940  0.08027475       0.023
  -0.06554406  0.16398148  0.06243592       0.023
   0.15293614  0.08829772 -0.04459708       0.012
  -0.15293614  0.26489316  0.08027475       0.023
  -0.10924010  0.23966524  0.06243592       0.023
  -0.06554406  0.21443732  0.04459708       0.023
  -0.15293614 -0.08829772  0.20514658       0.012
  -0.10924010 -0.11352564  0.18730775       0.023
  -0.10924010 -0.06306980  0.16946892       0.012
   0.10924010  0.06306980  0.04459708       0.004
   0.15293614  0.03784188  0.02675825       0.012
  -0.15293614  0.21443732  0.15163008       0.012
  -0.10924010  0.18920940  0.13379125       0.012
   0.15293614  0.08829772  0.00891942       0.012
  -0.15293614  0.26489316  0.13379125       0.023
  -0.10924010  0.23966524  0.11595242       0.023
  -0.15293614 -0.08829772  0.25866308       0.012
   0.15293614  0.08829772  0.06243592       0.004
  -0.15293614  0.26489316  0.18730775       0.012
 
 k-points in reciprocal lattice and weights: KPOINTS created by Atomic Simulation Env
   0.06250000  0.06250000  0.06250000       0.004
   0.18750000  0.06250000  0.06250000       0.012
   0.31250000  0.06250000  0.06250000       0.012
   0.43750000  0.06250000  0.06250000       0.012
  -0.43750000  0.06250000  0.06250000       0.012
  -0.31250000  0.06250000  0.06250000       0.012
  -0.18750000  0.06250000  0.06250000       0.012
  -0.06250000  0.06250000  0.06250000       0.012
   0.18750000  0.18750000  0.06250000       0.012
   0.31250000  0.18750000  0.06250000       0.023
   0.43750000  0.18750000  0.06250000       0.023
  -0.43750000  0.18750000  0.06250000       0.023
  -0.31250000  0.18750000  0.06250000       0.023
  -0.18750000  0.18750000  0.06250000       0.023
  -0.06250000  0.18750000  0.06250000       0.023
   0.31250000  0.31250000  0.06250000       0.012
   0.43750000  0.31250000  0.06250000       0.023
  -0.43750000  0.31250000  0.06250000       0.023
  -0.31250000  0.31250000  0.06250000       0.023
  -0.18750000  0.31250000  0.06250000       0.023
  -0.06250000  0.31250000  0.06250000       0.023
   0.43750000  0.43750000  0.06250000       0.012
  -0.43750000  0.43750000  0.06250000       0.023
  -0.31250000  0.43750000  0.06250000       0.023
  -0.18750000  0.43750000  0.06250000       0.023
  -0.06250000  0.43750000  0.06250000       0.023
  -0.43750000 -0.43750000  0.06250000       0.012
  -0.31250000 -0.43750000  0.06250000       0.023
  -0.18750000 -0.43750000  0.06250000       0.023
  -0.31250000 -0.31250000  0.06250000       0.012
  -0.18750000 -0.31250000  0.06250000       0.023
  -0.18750000 -0.18750000  0.06250000       0.012
   0.18750000  0.18750000  0.18750000       0.004
   0.31250000  0.18750000  0.18750000       0.012
   0.43750000  0.18750000  0.18750000       0.012
  -0.43750000  0.18750000  0.18750000       0.012
  -0.31250000  0.18750000  0.18750000       0.012
  -0.18750000  0.18750000  0.18750000       0.012
   0.31250000  0.31250000  0.18750000       0.012
   0.43750000  0.31250000  0.18750000       0.023
  -0.43750000  0.31250000  0.18750000       0.023
  -0.31250000  0.31250000  0.18750000       0.023
  -0.18750000  0.31250000  0.18750000       0.023
   0.43750000  0.43750000  0.18750000       0.012
  -0.43750000  0.43750000  0.18750000       0.023
  -0.31250000  0.43750000  0.18750000       0.023
  -0.18750000  0.43750000  0.18750000       0.023
  -0.43750000 -0.43750000  0.18750000       0.012
  -0.31250000 -0.43750000  0.18750000       0.023
  -0.31250000 -0.31250000  0.18750000       0.012
   0.31250000  0.31250000  0.31250000       0.004
   0.43750000  0.31250000  0.31250000       0.012
  -0.43750000  0.31250000  0.31250000       0.012
  -0.31250000  0.31250000  0.31250000       0.012
   0.43750000  0.43750000  0.31250000       0.012
  -0.43750000  0.43750000  0.31250000       0.023
  -0.31250000  0.43750000  0.31250000       0.023
  -0.43750000 -0.43750000  0.31250000       0.012
   0.43750000  0.43750000  0.43750000       0.004
  -0.43750000  0.43750000  0.43750000       0.012
 
 position of ions in fractional coordinates (direct lattice) 
   0.00000000  0.00000000  0.00000000
 
 position of ions in cartesian coordinates  (Angst):
   0.00000000  0.00000000  0.00000000
 


--------------------------------------------------------------------------------------------------------


 k-point  1 :   0.0625 0.0625 0.0625  plane waves:     259
 k-point  2 :   0.1875 0.0625 0.0625  plane waves:     257
 k-point  3 :   0.3125 0.0625 0.0625  plane waves:     249
 k-point  4 :   0.4375 0.0625 0.0625  plane waves:     247
 k-point  5 :  -0.4375 0.0625 0.0625  plane waves:     250
 k-point  6 :  -0.3125 0.0625 0.0625  plane waves:     246
 k-point  7 :  -0.1875 0.0625 0.0625  plane waves:     250
 k-point  8 :  -0.0625 0.0625 0.0625  plane waves:     260
 k-point  9 :   0.1875 0.1875 0.0625  plane waves:     251
 k-point 10 :   0.3125 0.1875 0.0625  plane waves:     244
 k-point 11 :   0.4375 0.1875 0.0625  plane waves:     245
 k-point 12 :  -0.4375 0.1875 0.0625  plane waves:     248
 k-point 13 :  -0.3125 0.1875 0.0625  plane waves:     247
 k-point 14 :  -0.1875 0.1875 0.0625  plane waves:     251
 k-point 15 :  -0.0625 0.1875 0.0625  plane waves:     249
 k-point 16 :   0.3125 0.3125 0.0625  plane waves:     246
 k-point 17 :   0.4375 0.3125 0.0625  plane waves:     244
 k-point 18 :  -0.4375 0.3125 0.0625  plane waves:     246
 k-point 19 :  -0.3125 0.3125 0.0625  plane waves:     245
 k-point 20 :  -0.1875 0.3125 0.0625  plane waves:     247
 k-point 21 :  -0.0625 0.3125 0.0625  plane waves:     246
 k-point 22 :   0.4375 0.4375 0.0625  plane waves:     240
 k-point 23 :  -0.4375 0.4375 0.0625  plane waves:     240
 k-point 24 :  -0.3125 0.4375 0.0625  plane waves:     245
 k-point 25 :  -0.1875 0.4375 0.0625  plane waves:     245
 k-point 26 :  -0.0625 0.4375 0.0625  plane waves:     247
 k-point 27 :  -0.4375-0.4375 0.0625  plane waves:     244
 k-point 28 :  -0.3125-0.4375 0.0625  plane waves:     241
 k-point 29 :  -0.1875-0.4375 0.0625  plane waves:     245
 k-point 30 :  -0.3125-0.3125 0.0625  plane waves:     242
 k-point 31 :  -0.1875-0.3125 0.0625  plane waves:     243
 k-point 32 :  -0.1875-0.1875 0.0625  plane waves:     244
 k-point 33 :   0.1875 0.1875 0.1875  plane waves:     250
 k-point 34 :   0.3125 0.1875 0.1875  plane waves:     251
 k-point 35 :   0.4375 0.1875 0.1875  plane waves:     251
 k-point 36 :  -0.4375 0.1875 0.1875  plane waves:     245
 k-point 37 :  -0.3125 0.1875 0.1875  plane waves:     242
 k-point 38 :  -0.1875 0.1875 0.1875  plane waves:     245
 k-point 39 :   0.3125 0.3125 0.1875  plane waves:     247
 k-point 40 :   0.4375 0.3125 0.1875  plane waves:     245
 k-point 41 :  -0.4375 0.3125 0.1875  plane waves:     244
 k-point 42 :  -0.3125 0.3125 0.1875  plane waves:     246
 k-point 43 :  -0.1875 0.3125 0.1875  plane waves:     245
 k-point 44 :   0.4375 0.4375 0.1875  plane waves:     244
 k-point 45 :  -0.4375 0.4375 0.1875  plane waves:     248
 k-point 46 :  -0.3125 0.4375 0.1875  plane waves:     247
 k-point 47 :  -0.1875 0.4375 0.1875  plane waves:     245
 k-point 48 :  -0.4375-0.4375 0.1875  plane waves:     242
 k-point 49 :  -0.3125-0.4375 0.1875  plane waves:     245
 k-point 50 :  -0.3125-0.3125 0.1875  plane waves:     241
 k-point 51 :   0.3125 0.3125 0.3125  plane waves:     256
 k-point 52 :   0.4375 0.3125 0.3125  plane waves:     250
 k-point 53 :  -0.4375 0.3125 0.3125  plane waves:     248
 k-point 54 :  -0.3125 0.3125 0.3125  plane waves:     244
 k-point 55 :   0.4375 0.4375 0.3125  plane waves:     248
 k-point 56 :  -0.4375 0.4375 0.3125  plane waves:     246
 k-point 57 :  -0.3125 0.4375 0.3125  plane waves:     245
 k-point 58 :  -0.4375-0.4375 0.3125  plane waves:     244
 k-point 59 :   0.4375 0.4375 0.4375  plane waves:     242
 k-point 60 :  -0.4375 0.4375 0.4375  plane waves:     248

 maximum number of plane-waves:       260
 maximum index in each direction: 
   IXMAX=    4   IYMAX=    4   IZMAX=    4
   IXMIN=   -4   IYMIN=   -4   IZMIN=   -4

 WARNING: aliasing errors must be expected set NGX to  18 to avoid them
 WARNING: aliasing errors must be expected set NGY to  18 to avoid them
 WARNING: aliasing errors must be expected set NGZ to  18 to avoid them
 aliasing errors are usually negligible using standard VASP settings
 and one can safely disregard these warnings

 total amount of memory used by VASP on root node    35882. kBytes
========================================================================

   base      :      30000. kBytes
   nonl-proj :       2250. kBytes
   grid      :       1216. kBytes
   one-center:         15. kBytes
   wavefun   :       2401. kBytes
 
     INWAV:  cpu time    0.00: real time    0.00
 Broyden mixing: mesh for mixing (old mesh)
   NGX =  9   NGY =  9   NGZ =  9
  (NGX  = 28   NGY  = 28   NGZ  = 28)
  gives a total of    729 points

 initial charge density was supplied:
 charge density of overlapping atoms calculated
 number of electron      10.0000000 magnetization 
 keeping initial charge density in first step


--------------------------------------------------------------------------------------------------------


 Maximum index for augmentation-charges         7803 (set IRDMAX)


--------------------------------------------------------------------------------------------------------


 First call to EWALD:  gamma=   0.695
 Maximum number of real-space cells 3x 3x 3
 Maximum number of reciprocal cells 3x 3x 3

    FEWALD:  cpu time    0.00: real time    0.00


----------------------------------------- Iteration    1(   1)  ---------------------------------------


    POTLOK:  cpu time    0.02: real time    0.02
    SETDIJ:  cpu time    0.01: real time    0.01
     EDDAV:  cpu time    0.61: real time    0.61
       DOS:  cpu time    0.00: real time    0.00
    --------------------------------------------
      LOOP:  cpu time    0.65: real time    0.65

 eigenvalue-minimisations  :  1128
 total energy-change (2. order) : 0.2746769E+02  (-0.4151881E+03)
 number of electron      10.0000000 magnetization 
 augmentation part       10.0000000 magnetization 

 Free energy of the ion-electron system (eV)
  ---------------------------------------------------
  alpha Z        PSCENC =        39.37256499
  Ewald energy   TEWEN  =      -815.96101996
  -Hartree energ DENC   =      -135.93504451
  -exchange      EXHF   =         0.00000000
  -V(xc)+E(xc)   XCENC  =       -29.48441413
  PAW double counting   =       806.73831454     -744.51602449
  entropy T*S    EENTRO =         0.00162857
  eigenvalues    EBANDS =        97.52555999
  atomic energy  EATOM  =       809.72612850
  ---------------------------------------------------
  free energy    TOTEN  =        27.46769351 eV

  energy without entropy =       27.46606494  energy(sigma->0) =       27.46715065


--------------------------------------------------------------------------------------------------------




----------------------------------------- Iteration    1(   2)  ---------------------------------------


     EDDAV:  cpu time    0.61: real time    0.61
       DOS:  cpu time    0.00: real time    0.01
    --------------------------------------------
      LOOP:  cpu time    0.62: real time    0.62

 eigenvalue-minimisations  :  1141
 total energy-change (2. order) :-0.3259065E+02  (-0.3136649E+02)
 number of electron      10.0000000 magnetization 
 augmentation part       10.0000000 magnetization 

 Free energy of the ion-electron system (eV)
  ---------------------------------------------------
  alpha Z        PSCENC =        39.37256499
  Ewald energy   TEWEN  =      -815.96101996
  -Hartree energ DENC   =      -135.93504451
  -exchange      EXHF   =         0.00000000
  -V(xc)+E(xc)   XCENC  =       -29.48441413
  PAW double counting   =       806.73831454     -744.51602449
  entropy T*S    EENTRO =        -0.00850420
  eigenvalues    EBANDS =        64.94504670
  atomic energy  EATOM  =       809.72612850
  ---------------------------------------------------
  free energy    TOTEN  =        -5.12295256 eV

  energy without entropy =       -5.11444835  energy(sigma->0) =       -5.12011782


--------------------------------------------------------------------------------------------------------




----------------------------------------- Iteration    1(   3)  ---------------------------------------


     EDDAV:  cpu time    0.68: real time    0.68
       DOS:  cpu time    0.00: real time    0.01
    --------------------------------------------
      LOOP:  cpu time    0.68: real time    0.70

 eigenvalue-minimisations  :  1273
 total energy-change (2. order) :-0.2898949E+00  (-0.2875780E+00)
 number of electron      10.0000000 magnetization 
 augmentation part       10.0000000 magnetization 

 Free energy of the ion-electron system (eV)
  ---------------------------------------------------
  alpha Z        PSCENC =        39.37256499
  Ewald energy   TEWEN  =      -815.96101996
  -Hartree energ DENC   =      -135.93504451
  -exchange      EXHF   =         0.00000000
  -V(xc)+E(xc)   XCENC  =       -29.48441413
  PAW double counting   =       806.73831454     -744.51602449
  entropy T*S    EENTRO =        -0.00918668
  eigenvalues    EBANDS =        64.65583423
  atomic energy  EATOM  =       809.72612850
  ---------------------------------------------------
  free energy    TOTEN  =        -5.41284750 eV

  energy without entropy =       -5.40366082  energy(sigma->0) =       -5.40978527


--------------------------------------------------------------------------------------------------------




----------------------------------------- Iteration    1(   4)  ---------------------------------------


     EDDAV:  cpu time    0.66: real time    0.66
       DOS:  cpu time    0.00: real time    0.00
    --------------------------------------------
      LOOP:  cpu time    0.66: real time    0.68

 eigenvalue-minimisations  :  1233
 total energy-change (2. order) :-0.1447924E-02  (-0.1447776E-02)
 number of electron      10.0000000 magnetization 
 augmentation part       10.0000000 magnetization 

 Free energy of the ion-electron system (eV)
  ---------------------------------------------------
  alpha Z        PSCENC =        39.37256499
  Ewald energy   TEWEN  =      -815.96101996
  -Hartree energ DENC   =      -135.93504451
  -exchange      EXHF   =         0.00000000
  -V(xc)+E(xc)   XCENC  =       -29.48441413
  PAW double counting   =       806.73831454     -744.51602449
  entropy T*S    EENTRO =        -0.00918536
  eigenvalues    EBANDS =        64.65438499
  atomic energy  EATOM  =       809.72612850
  ---------------------------------------------------
  free energy    TOTEN  =        -5.41429542 eV

  energy without entropy =       -5.40511006  energy(sigma->0) =       -5.41123363


--------------------------------------------------------------------------------------------------------




----------------------------------------- Iteration    1(   5)  ---------------------------------------


     EDDAV:  cpu time    0.67: real time    0.67
       DOS:  cpu time    0.00: real time    0.01
    CHARGE:  cpu time    0.05: real time    0.05
    MIXING:  cpu time    0.00: real time    0.00
    --------------------------------------------
      LOOP:  cpu time    0.73: real time    0.74

 eigenvalue-minimisations  :  1254
 total energy-change (2. order) :-0.2097820E-04  (-0.2097719E-04)
 number of electron      10.0000005 magnetization 
 augmentation part        4.0088454 magnetization 

 Broyden mixing:
  rms(total) = 0.55919E+00    rms(broyden)= 0.55915E+00
  rms(prec ) = 0.13668E+01
  weight for this iteration     100.00

 Free energy of the ion-electron system (eV)
  ---------------------------------------------------
  alpha Z        PSCENC =        39.37256499
  Ewald energy   TEWEN  =      -815.96101996
  -Hartree energ DENC   =      -135.93504451
  -exchange      EXHF   =         0.00000000
  -V(xc)+E(xc)   XCENC  =       -29.48441413
  PAW double counting   =       806.73831454     -744.51602449
  entropy T*S    EENTRO =        -0.00918529
  eigenvalues    EBANDS =        64.65436394
  atomic energy  EATOM  =       809.72612850
  ---------------------------------------------------
  free energy    TOTEN  =        -5.41431640 eV

  energy without entropy =       -5.40513111  energy(sigma->0) =       -5.41125464


--------------------------------------------------------------------------------------------------------




----------------------------------------- Iteration    1(   6)  ---------------------------------------


    POTLOK:  cpu time    0.02: real time    0.02
    SETDIJ:  cpu time    0.01: real time    0.01
     EDDAV:  cpu time    0.60: real time    0.60
       DOS:  cpu time    0.00: real time    0.01
    CHARGE:  cpu time    0.05: real time    0.05
    MIXING:  cpu time    0.00: real time    0.00
    --------------------------------------------
      LOOP:  cpu time    0.70: real time    0.82

 eigenvalue-minimisations  :  1102
 total energy-change (2. order) : 0.2340677E+00  (-0.1338679E+00)
 number of electron      10.0000006 magnetization 
 augmentation part        4.2101594 magnetization 

 Broyden mixing:
  rms(total) = 0.27388E+00    rms(broyden)= 0.27387E+00
  rms(prec ) = 0.28921E+00
  weight for this iteration     100.00

 eigenvalues of (default mixing * dielectric matrix)
  average eigenvalue GAMMA=   1.3132
  1.3132

 Free energy of the ion-electron system (eV)
  ---------------------------------------------------
  alpha Z        PSCENC =        39.37256499
  Ewald energy   TEWEN  =      -815.96101996
  -Hartree energ DENC   =      -127.70288770
  -exchange      EXHF   =         0.00000000
  -V(xc)+E(xc)   XCENC  =       -29.72692383
  PAW double counting   =       846.86494981     -785.80162253
  entropy T*S    EENTRO =        -0.00675470
  eigenvalues    EBANDS =        58.05531668
  atomic energy  EATOM  =       809.72612850
  ---------------------------------------------------
  free energy    TOTEN  =        -5.18024873 eV

  energy without entropy =       -5.17349403  energy(sigma->0) =       -5.17799716


--------------------------------------------------------------------------------------------------------




----------------------------------------- Iteration    1(   7)  ---------------------------------------


    POTLOK:  cpu time    0.02: real time    0.02
    SETDIJ:  cpu time    0.01: real time    0.01
     EDDAV:  cpu time    0.61: real time    0.61
       DOS:  cpu time    0.00: real time    0.01
    CHARGE:  cpu time    0.05: real time    0.05
    MIXING:  cpu time    0.00: real time    0.00
    --------------------------------------------
      LOOP:  cpu time    0.71: real time    0.75

 eigenvalue-minimisations  :  1147
 total energy-change (2. order) : 0.4825951E-02  (-0.2076925E-03)
 number of electron      10.0000006 magnetization 
 augmentation part        4.2082584 magnetization 

 Broyden mixing:
  rms(total) = 0.15585E+00    rms(broyden)= 0.15585E+00
  rms(prec ) = 0.16738E+00
  weight for this iteration     100.00

 eigenvalues of (default mixing * dielectric matrix)
  average eigenvalue GAMMA=   1.7335
  0.9852  2.4818

 Free energy of the ion-electron system (eV)
  ---------------------------------------------------
  alpha Z        PSCENC =        39.37256499
  Ewald energy   TEWEN  =      -815.96101996
  -Hartree energ DENC   =      -127.34340710
  -exchange      EXHF   =         0.00000000
  -V(xc)+E(xc)   XCENC  =       -29.73931007
  PAW double counting   =       876.76926772     -816.08302027
  entropy T*S    EENTRO =        -0.00672172
  eigenvalues    EBANDS =        58.09009513
  atomic energy  EATOM  =       809.72612850
  ---------------------------------------------------
  free energy    TOTEN  =        -5.17542278 eV

  energy without entropy =       -5.16870106  energy(sigma->0) =       -5.17318221


--------------------------------------------------------------------------------------------------------




----------------------------------------- Iteration    1(   8)  ---------------------------------------


    POTLOK:  cpu time    0.02: real time    0.02
    SETDIJ:  cpu time    0.01: real time    0.01
     EDDAV:  cpu time    0.62: real time    0.62
       DOS:  cpu time    0.00: real time    0.01
    CHARGE:  cpu time    0.05: real time    0.05
    MIXING:  cpu time    0.00: real time    0.00
    --------------------------------------------
      LOOP:  cpu time    0.71: real time    0.91

 eigenvalue-minimisations  :  1133
 total energy-change (2. order) : 0.2292090E-02  (-0.7886865E-04)
 number of electron      10.0000006 magnetization 
 augmentation part        4.2102774 magnetization 

 Broyden mixing:
  rms(total) = 0.16320E-02    rms(broyden)= 0.16305E-02
  rms(prec ) = 0.37535E-02
  weight for this iteration     100.00

 eigenvalues of (default mixing * dielectric matrix)
  average eigenvalue GAMMA=   1.5491
  2.4894  0.9837  1.1743

 Free energy of the ion-electron system (eV)
  ---------------------------------------------------
  alpha Z        PSCENC =        39.37256499
  Ewald energy   TEWEN  =      -815.96101996
  -Hartree energ DENC   =      -126.70901171
  -exchange      EXHF   =         0.00000000
  -V(xc)+E(xc)   XCENC  =       -29.75951327
  PAW double counting   =       917.52436875     -857.34136182
  entropy T*S    EENTRO =        -0.00667524
  eigenvalues    EBANDS =        57.98138906
  atomic energy  EATOM  =       809.72612850
  ---------------------------------------------------
  free energy    TOTEN  =        -5.17313069 eV

  energy without entropy =       -5.16645545  energy(sigma->0) =       -5.17090561


--------------------------------------------------------------------------------------------------------




----------------------------------------- Iteration    1(   9)  ---------------------------------------


    POTLOK:  cpu time    0.02: real time    0.02
    SETDIJ:  cpu time    0.01: real time    0.01
     EDDAV:  cpu time    0.39: real time    0.39
       DOS:  cpu time    0.00: real time    0.01
    --------------------------------------------
      LOOP:  cpu time    0.43: real time    0.44

 eigenvalue-minimisations  :   569
 total energy-change (2. order) :-0.8023227E-05  (-0.5960993E-06)
 number of electron      10.0000006 magnetization 
 augmentation part        4.2102774 magnetization 

 Free energy of the ion-electron system (eV)
  ---------------------------------------------------
  alpha Z        PSCENC =        39.37256499
  Ewald energy   TEWEN  =      -815.96101996
  -Hartree energ DENC   =      -126.71250985
  -exchange      EXHF   =         0.00000000
  -V(xc)+E(xc)   XCENC  =       -29.75951885
  PAW double counting   =       918.06283919     -857.86687796
  entropy T*S    EENTRO =        -0.00667345
  eigenvalues    EBANDS =        57.97192868
  atomic energy  EATOM  =       809.72612850
  ---------------------------------------------------
  free energy    TOTEN  =        -5.17313871 eV

  energy without entropy =       -5.16646526  energy(sigma->0) =       -5.17091423


--------------------------------------------------------------------------------------------------------




 average (electrostatic) potential at core
  the test charge radii are     1.1199
  (the norm of the test charge is              1.0000)
       1 -72.0100
 
 
 
 E-fermi :   7.9742     XC(G=0): -12.4745     alpha+bet :-14.8758


 k-point     1 :       0.0625    0.0625    0.0625
  band No.  band energies     occupation 
      1       1.8016      2.00000
      2       5.5697      2.00000
      3       5.6517      2.00000
      4       5.6517      2.00000
      5       6.9277      2.00000
      6       6.9277      2.00000
      7      25.1338      0.00000
      8      28.2246      0.00000
      9      29.2725      0.00000

 k-point     2 :       0.1875    0.0625    0.0625
  band No.  band energies     occupation 
      1       2.4451      2.00000
      2       5.3769      2.00000
      3       5.8300      2.00000
      4       5.8519      2.00000
      5       6.7480      2.00000
      6       7.0267      2.00000
      7      24.9948      0.00000
      8      26.0340      0.00000
      9      28.7141      0.00000

 k-point     3 :       0.3125    0.0625    0.0625
  band No.  band energies     occupation 
      1       3.4845      2.00000
      2       5.5739      2.00000
      3       5.8722      2.00000
      4       5.9000      2.00000
      5       6.9504      2.00000
      6       7.4936      2.00353
      7      20.8352      0.00000
      8      25.5063      0.00000
      9      28.4231      0.00000

 k-point     4 :       0.4375    0.0625    0.0625
  band No.  band energies     occupation 
      1       3.6411      2.00000
      2       5.6100      2.00000
      3       5.7066      2.00000
      4       7.0821      2.00000
      5       7.5921      2.02109
      6       8.6278     -0.00004
      7      16.4467      0.00000
      8      24.6587      0.00000
      9      27.2709      0.00000

 k-point     5 :      -0.4375    0.0625    0.0625
  band No.  band energies     occupation 
      1       3.5910      2.00000
      2       5.5193      2.00000
      3       5.6533      2.00000
      4       7.4459      2.00120
      5       7.9430      1.26115
      6       9.7059      0.00000
      7      14.5278      0.00000
      8      24.4006      0.00000
      9      27.3799      0.00000

 k-point     6 :      -0.3125    0.0625    0.0625
  band No.  band energies     occupation 
      1       3.6540      2.00000
      2       5.6551      2.00000
      3       5.7958      2.00000
      4       6.5003      2.00000
      5       7.6977      2.06477
      6       7.9190      1.44807
      7      17.8180      0.00000
      8      25.0230      0.00000
      9      27.7328      0.00000

 k-point     7 :      -0.1875    0.0625    0.0625
  band No.  band energies     occupation 
      1       3.1920      2.00000
      2       5.3530      2.00000
      3       5.8946      2.00000
      4       5.9389      2.00000
      5       6.8958      2.00000
      6       7.1955      2.00000
      7      22.3589      0.00000
      8      25.9554      0.00000
      9      28.5093      0.00000

 k-point     8 :      -0.0625    0.0625    0.0625
  band No.  band energies     occupation 
      1       2.1344      2.00000
      2       5.4247      2.00000
      3       5.7782      2.00000
      4       5.7827      2.00000
      5       6.7717      2.00000
      6       7.0054      2.00000
      7      25.3325      0.00000
      8      27.0809      0.00000
      9      28.7835      0.00000

 k-point     9 :       0.1875    0.1875    0.0625
  band No.  band energies     occupation 
      1       2.7512      2.00000
      2       5.1448      2.00000
      3       6.0166      2.00000
      4       6.0391      2.00000
      5       6.5662      2.00000
      6       7.1512      2.00000
      7      25.3548      0.00000
      8      26.2618      0.00000
      9      27.5956      0.00000

 k-point    10 :       0.3125    0.1875    0.0625
  band No.  band energies     occupation 
      1       3.7006      2.00000
      2       4.8965      2.00000
      3       5.8552      2.00000
      4       6.3555      2.00000
      5       6.8856      2.00000
      6       7.5985      2.02318
      7      22.7797      0.00000
      8      24.6879      0.00000
      9      27.1227      0.00000

 k-point    11 :       0.4375    0.1875    0.0625
  band No.  band energies     occupation 
      1       4.0648      2.00000
      2       5.3521      2.00000
      3       5.6425      2.00000
      4       6.2396      2.00000
      5       7.6757      2.05595
      6       9.0948      0.00000
      7      18.1674      0.00000
      8      24.1343      0.00000
      9      25.2845      0.00000

 k-point    12 :      -0.4375    0.1875    0.0625
  band No.  band energies     occupation 
      1       4.0153      2.00000
      2       5.2065      2.00000
      3       6.0480      2.00000
      4       6.3737      2.00000
      5       7.8878      1.66129
      6      11.4154      0.00000
      7      14.6055      0.00000
      8      23.6041      0.00000
      9      24.7053      0.00000

 k-point    13 :      -0.3125    0.1875    0.0625
  band No.  band energies     occupation 
      1       4.1120      2.00000
      2       5.3268      2.00000
      3       5.9532      2.00000
      4       6.1869      2.00000
      5       7.5016      2.00417
      6      10.0203      0.00000
      7      16.8132      0.00000
      8      23.0574      0.00000
      9      25.6352      0.00000

 k-point    14 :      -0.1875    0.1875    0.0625
  band No.  band energies     occupation 
      1       4.0367      2.00000
      2       5.0644      2.00000
      3       5.6935      2.00000
      4       6.3189      2.00000
      5       6.7511      2.00000
      6       8.2211     -0.07089
      7      21.2611      0.00000
      8      23.3359      0.00000
      9      27.3735      0.00000

 k-point    15 :      -0.0625    0.1875    0.0625
  band No.  band energies     occupation 
      1       3.0170      2.00000
      2       5.1807      2.00000
      3       5.9374      2.00000
      4       6.0380      2.00000
      5       6.6490      2.00000
      6       7.2447      2.00000
      7      23.9791      0.00000
      8      25.4859      0.00000
      9      28.2440      0.00000

 k-point    16 :       0.3125    0.3125    0.0625
  band No.  band energies     occupation 
      1       3.9383      2.00000
      2       4.4427      2.00000
      3       6.4129      2.00000
      4       6.8415      2.00000
      5       7.3711      2.00017
      6       7.5661      2.01399
      7      23.1079      0.00000
      8      24.1585      0.00000
      9      24.7778      0.00000

 k-point    17 :       0.4375    0.3125    0.0625
  band No.  band energies     occupation 
      1       4.0774      2.00000
      2       4.3142      2.00000
      3       6.3305      2.00000
      4       7.1923      2.00000
      5       7.7366      2.07048
      6       9.3548      0.00000
      7      20.3351      0.00000
      8      22.1926      0.00000
      9      22.4889      0.00000

 k-point    18 :      -0.4375    0.3125    0.0625
  band No.  band energies     occupation 
      1       4.1724      2.00000
      2       4.6809      2.00000
      3       6.0061      2.00000
      4       6.8903      2.00000
      5       7.9515      1.19097
      6      12.4537      0.00000
      7      16.1711      0.00000
      8      20.4284      0.00000
      9      22.5810      0.00000

 k-point    19 :      -0.3125    0.3125    0.0625
  band No.  band energies     occupation 
      1       4.5451      2.00000
      2       5.0377      2.00000
      3       5.5332      2.00000
      4       6.6777      2.00000
      5       7.5355      2.00813
      6      12.6364      0.00000
      7      16.4865      0.00000
      8      19.0580      0.00000
      9      24.1388      0.00000

 k-point    20 :      -0.1875    0.3125    0.0625
  band No.  band energies     occupation 
      1       4.5935      2.00000
      2       5.1867      2.00000
      3       5.3684      2.00000
      4       6.4832      2.00000
      5       7.1002      2.00000
      6      10.0739      0.00000
      7      18.7239      0.00000
      8      20.8916      0.00000
      9      25.7734      0.00000

 k-point    21 :      -0.0625    0.3125    0.0625
  band No.  band energies     occupation 
      1       3.8058      2.00000
      2       5.6171      2.00000
      3       5.7284      2.00000
      4       6.0046      2.00000
      5       7.2443      2.00000
      6       8.0784      0.23719
      7      19.4411      0.00000
      8      24.9006      0.00000
      9      27.0549      0.00000

 k-point    22 :       0.4375    0.4375    0.0625
  band No.  band energies     occupation 
      1       3.6887      2.00000
      2       3.9028      2.00000
      3       7.6137      2.02866
      4       7.6570      2.04739
      5       7.9916      0.85368
      6      10.0243      0.00000
      7      19.7503      0.00000
      8      20.7091      0.00000
      9      21.4207      0.00000

 k-point    23 :      -0.4375    0.4375    0.0625
  band No.  band energies     occupation 
      1       3.7394      2.00000
      2       3.9729      2.00000
      3       7.1983      2.00000
      4       7.6346      2.03725
      5       8.1294      0.03271
      6      12.3530      0.00000
      7      17.8321      0.00000
      8      19.0134      0.00000
      9      20.6666      0.00000

 k-point    24 :      -0.3125    0.4375    0.0625
  band No.  band energies     occupation 
      1       4.1108      2.00000
      2       4.5575      2.00000
      3       6.1932      2.00000
      4       7.1135      2.00000
      5       7.9108      1.50845
      6      14.2691      0.00000
      7      15.6759      0.00000
      8      18.2598      0.00000
      9      22.2005      0.00000

 k-point    25 :      -0.1875    0.4375    0.0625
  band No.  band energies     occupation 
      1       4.3291      2.00000
      2       5.0173      2.00000
      3       5.9333      2.00000
      4       6.3758      2.00000
      5       7.7489      2.06754
      6      12.5142      0.00000
      7      14.8335      0.00000
      8      21.4185      0.00000
      9      24.2752      0.00000

 k-point    26 :      -0.0625    0.4375    0.0625
  band No.  band energies     occupation 
      1       3.7682      2.00000
      2       5.4370      2.00000
      3       5.8099      2.00000
      4       6.8063      2.00000
      5       7.8307      1.93184
      6       9.8857      0.00000
      7      15.3420      0.00000
      8      24.3677      0.00000
      9      26.1429      0.00000

 k-point    27 :      -0.4375   -0.4375    0.0625
  band No.  band energies     occupation 
      1       3.5502      2.00000
      2       3.7821      2.00000
      3       7.8344      1.91908
      4       7.9233      1.41643
      5       8.1464     -0.00803
      6      11.4014      0.00000
      7      17.8874      0.00000
      8      20.0827      0.00000
      9      20.7818      0.00000

 k-point    28 :      -0.3125   -0.4375    0.0625
  band No.  band energies     occupation 
      1       3.8776      2.00000
      2       4.0891      2.00000
      3       6.8396      2.00000
      4       7.5323      2.00767
      5       7.9685      1.04896
      6      10.9104      0.00000
      7      19.2379      0.00000
      8      20.0785      0.00000
      9      21.2203      0.00000

 k-point    29 :      -0.1875   -0.4375    0.0625
  band No.  band energies     occupation 
      1       4.1876      2.00000
      2       4.9599      2.00000
      3       5.7763      2.00000
      4       6.5609      2.00000
      5       7.9039      1.55620
      6      10.6132      0.00000
      7      17.0457      0.00000
      8      22.9074      0.00000
      9      23.3146      0.00000

 k-point    30 :      -0.3125   -0.3125    0.0625
  band No.  band energies     occupation 
      1       3.8920      2.00000
      2       4.1319      2.00000
      3       7.0589      2.00000
      4       7.2937      2.00002
      5       7.7862      2.03553
      6       8.4868     -0.00174
      7      21.7394      0.00000
      8      22.3453      0.00000
      9      22.5974      0.00000

 k-point    31 :      -0.1875   -0.3125    0.0625
  band No.  band energies     occupation 
      1       4.1290      2.00000
      2       4.5982      2.00000
      3       5.8944      2.00000
      4       6.7558      2.00000
      5       7.3728      2.00018
      6       8.2103     -0.07026
      7      21.5414      0.00000
      8      23.4760      0.00000
      9      24.9802      0.00000

 k-point    32 :      -0.1875   -0.1875    0.0625
  band No.  band energies     occupation 
      1       3.4894      2.00000
      2       4.7970      2.00000
      3       6.1306      2.00000
      4       6.4032      2.00000
      5       6.7233      2.00000
      6       7.3463      2.00008
      7      24.4187      0.00000
      8      25.9167      0.00000
      9      26.1891      0.00000

 k-point    33 :       0.1875    0.1875    0.1875
  band No.  band energies     occupation 
      1       2.7136      2.00000
      2       5.4168      2.00000
      3       5.8519      2.00000
      4       5.8519      2.00000
      5       6.9189      2.00000
      6       6.9189      2.00000
      7      23.7303      0.00000
      8      26.0752      0.00000
      9      29.9573      0.00000

 k-point    34 :       0.3125    0.1875    0.1875
  band No.  band energies     occupation 
      1       3.4906      2.00000
      2       5.1703      2.00000
      3       5.8856      2.00000
      4       6.1183      2.00000
      5       6.5774      2.00000
      6       7.6262      2.03364
      7      22.5699      0.00000
      8      24.4576      0.00000
      9      28.6049      0.00000

 k-point    35 :       0.4375    0.1875    0.1875
  band No.  band energies     occupation 
      1       4.3553      2.00000
      2       5.1919      2.00000
      3       5.6314      2.00000
      4       6.2724      2.00000
      5       6.7832      2.00000
      6       9.0284      0.00000
      7      19.9148      0.00000
      8      22.0500      0.00000
      9      27.1694      0.00000

 k-point    36 :      -0.4375    0.1875    0.1875
  band No.  band energies     occupation 
      1       4.1958      2.00000
      2       5.2105      2.00000
      3       6.1381      2.00000
      4       6.1511      2.00000
      5       7.5570      2.01198
      6      11.1540      0.00000
      7      15.6841      0.00000
      8      22.1124      0.00000
      9      26.1897      0.00000

 k-point    37 :      -0.3125    0.1875    0.1875
  band No.  band energies     occupation 
      1       4.0674      2.00000
      2       5.1556      2.00000
      3       6.0626      2.00000
      4       6.2127      2.00000
      5       7.9813      0.94012
      6      11.0256      0.00000
      7      15.5303      0.00000
      8      23.1605      0.00000
      9      25.1676      0.00000

 k-point    38 :      -0.1875    0.1875    0.1875
  band No.  band energies     occupation 
      1       4.0667      2.00000
      2       4.9457      2.00000
      3       5.7612      2.00000
      4       6.4002      2.00000
      5       7.7862      2.03547
      6       8.3811     -0.01430
      7      19.7571      0.00000
      8      24.8129      0.00000
      9      24.9692      0.00000

 k-point    39 :       0.3125    0.3125    0.1875
  band No.  band energies     occupation 
      1       3.7314      2.00000
      2       5.1920      2.00000
      3       5.7733      2.00000
      4       6.1218      2.00000
      5       7.3689      2.00016
      6       7.5059      2.00456
      7      21.0337      0.00000
      8      25.7306      0.00000
      9      26.6921      0.00000

 k-point    40 :       0.4375    0.3125    0.1875
  band No.  band energies     occupation 
      1       4.4035      2.00000
      2       4.9225      2.00000
      3       5.4535      2.00000
      4       6.6616      2.00000
      5       7.1775      2.00000
      6       9.0946      0.00000
      7      20.0424      0.00000
      8      22.1749      0.00000
      9      25.2599      0.00000

 k-point    41 :      -0.4375    0.3125    0.1875
  band No.  band energies     occupation 
      1       4.7453      2.00000
      2       4.9234      2.00000
      3       5.2627      2.00000
      4       6.7773      2.00000
      5       7.5041      2.00440
      6      11.4660      0.00000
      7      17.6821      0.00000
      8      19.9471      0.00000
      9      23.3781      0.00000

 k-point    42 :      -0.3125    0.3125    0.1875
  band No.  band energies     occupation 
      1       4.5020      2.00000
      2       4.8239      2.00000
      3       5.6412      2.00000
      4       6.6905      2.00000
      5       7.8580      1.82286
      6      13.3800      0.00000
      7      15.0342      0.00000
      8      20.9273      0.00000
      9      21.8435      0.00000

 k-point    43 :      -0.1875    0.3125    0.1875
  band No.  band energies     occupation 
      1       4.3875      2.00000
      2       4.6670      2.00000
      3       5.6372      2.00000
      4       7.0354      2.00000
      5       7.5798      2.01746
      6      10.3847      0.00000
      7      18.9422      0.00000
      8      21.0941      0.00000
      9      22.8092      0.00000

 k-point    44 :       0.4375    0.4375    0.1875
  band No.  band energies     occupation 
      1       4.0785      2.00000
      2       4.6088      2.00000
      3       6.1207      2.00000
      4       6.7508      2.00000
      5       7.9787      0.96231
      6       9.8159      0.00000
      7      18.5797      0.00000
      8      22.6073      0.00000
      9      23.5418      0.00000

 k-point    45 :      -0.4375    0.4375    0.1875
  band No.  band energies     occupation 
      1       4.2089      2.00000
      2       4.4376      2.00000
      3       6.0209      2.00000
      4       7.2520      2.00000
      5       7.9044      1.55325
      6      12.0404      0.00000
      7      18.0544      0.00000
      8      19.9874      0.00000
      9      20.6251      0.00000

 k-point    46 :      -0.3125    0.4375    0.1875
  band No.  band energies     occupation 
      1       4.3833      2.00000
      2       4.8377      2.00000
      3       5.5119      2.00000
      4       6.9409      2.00000
      5       8.1211      0.05745
      6      15.0586      0.00000
      7      16.3667      0.00000
      8      18.1830      0.00000
      9      19.3842      0.00000

 k-point    47 :      -0.1875    0.4375    0.1875
  band No.  band energies     occupation 
      1       4.5597      2.00000
      2       4.8458      2.00000
      3       5.3737      2.00000
      4       6.9281      2.00000
      5       7.8769      1.72532
      6      13.2060      0.00000
      7      16.8506      0.00000
      8      19.2403      0.00000
      9      20.9062      0.00000

 k-point    48 :      -0.4375   -0.4375    0.1875
  band No.  band energies     occupation 
      1       3.8530      2.00000
      2       4.2012      2.00000
      3       6.8458      2.00000
      4       7.4060      2.00044
      5       8.0005      0.78020
      6      13.1157      0.00000
      7      17.0466      0.00000
      8      18.1916      0.00000
      9      21.9946      0.00000

 k-point    49 :      -0.3125   -0.4375    0.1875
  band No.  band energies     occupation 
      1       4.0669      2.00000
      2       4.3358      2.00000
      3       6.3186      2.00000
      4       7.2692      2.00001
      5       8.1231      0.05124
      6      13.6673      0.00000
      7      17.4349      0.00000
      8      18.2567      0.00000
      9      19.9906      0.00000

 k-point    50 :      -0.3125   -0.3125    0.1875
  band No.  band energies     occupation 
      1       3.9557      2.00000
      2       4.3366      2.00000
      3       6.5626      2.00000
      4       7.1199      2.00000
      5       8.0442      0.44604
      6      11.5314      0.00000
      7      17.6290      0.00000
      8      20.1409      0.00000
      9      22.5244      0.00000

 k-point    51 :       0.3125    0.3125    0.3125
  band No.  band energies     occupation 
      1       3.5289      2.00000
      2       5.7805      2.00000
      3       5.7805      2.00000
      4       6.2729      2.00000
      5       7.3513      2.00010
      6       7.3513      2.00010
      7      19.2366      0.00000
      8      25.3568      0.00000
      9      29.5442      0.00000

 k-point    52 :       0.4375    0.3125    0.3125
  band No.  band energies     occupation 
      1       3.9320      2.00000
      2       5.5397      2.00000
      3       5.9422      2.00000
      4       6.1102      2.00000
      5       7.2040      2.00000
      6       8.8926      0.00000
      7      18.0376      0.00000
      8      23.9454      0.00000
      9      26.7037      0.00000

 k-point    53 :      -0.4375    0.3125    0.3125
  band No.  band energies     occupation 
      1       4.5965      2.00000
      2       5.1753      2.00000
      3       5.5382      2.00000
      4       6.4575      2.00000
      5       7.2387      2.00000
      6      11.2191      0.00000
      7      17.5517      0.00000
      8      19.8182      0.00000
      9      26.5968      0.00000

 k-point    54 :      -0.3125    0.3125    0.3125
  band No.  band energies     occupation 
      1       4.2658      2.00000
      2       4.8714      2.00000
      3       5.9025      2.00000
      4       6.8660      2.00000
      5       7.6775      2.05675
      6      13.9810      0.00000
      7      15.3409      0.00000
      8      18.5188      0.00000
      9      24.1173      0.00000

 k-point    55 :       0.4375    0.4375    0.3125
  band No.  band energies     occupation 
      1       3.8489      2.00000
      2       5.4338      2.00000
      3       5.9452      2.00000
      4       6.2659      2.00000
      5       7.9225      1.42217
      6       9.2964      0.00000
      7      16.5735      0.00000
      8      24.6382      0.00000
      9      26.2607      0.00000

 k-point    56 :      -0.4375    0.4375    0.3125
  band No.  band energies     occupation 
      1       4.3303      2.00000
      2       5.0325      2.00000
      3       5.7998      2.00000
      4       6.4191      2.00000
      5       7.7585      2.06295
      6      11.5488      0.00000
      7      15.7810      0.00000
      8      22.3125      0.00000
      9      23.4715      0.00000

 k-point    57 :      -0.3125    0.4375    0.3125
  band No.  band energies     occupation 
      1       4.4727      2.00000
      2       4.8731      2.00000
      3       5.5287      2.00000
      4       6.8638      2.00000
      5       7.8768      1.72602
      6      14.3721      0.00000
      7      15.6039      0.00000
      8      18.5958      0.00000
      9      21.5746      0.00000

 k-point    58 :      -0.4375   -0.4375    0.3125
  band No.  band energies     occupation 
      1       4.2241      2.00000
      2       4.9420      2.00000
      3       5.9479      2.00000
      4       6.5547      2.00000
      5       7.8712      1.75653
      6      12.9353      0.00000
      7      14.8119      0.00000
      8      20.7962      0.00000
      9      24.4599      0.00000

 k-point    59 :       0.4375    0.4375    0.4375
  band No.  band energies     occupation 
      1       3.5263      2.00000
      2       5.6071      2.00000
      3       5.6071      2.00000
      4       7.8582      1.82202
      5       7.8582      1.82202
      6       8.6001     -0.00009
      7      15.2421      0.00000
      8      24.4861      0.00000
      9      28.1303      0.00000

 k-point    60 :      -0.4375    0.4375    0.4375
  band No.  band energies     occupation 
      1       3.8244      2.00000
      2       5.3656      2.00000
      3       5.8406      2.00000
      4       6.8126      2.00000
      5       7.8302      1.93359
      6      10.7233      0.00000
      7      14.5732      0.00000
      8      23.9596      0.00000
      9      26.1421      0.00000


--------------------------------------------------------------------------------------------------------


 soft charge-density along one line, spin component           1
         0         1         2         3         4         5         6         7         8         9
x     5.7897    0.0000    0.9282    0.0000   -0.2958    0.0000   -0.0197    0.0000    0.0150    0.0000
x     0.0010    0.0000    0.0000    0.0000    0.0000    0.0000
y     5.7897    0.0000    0.9282    0.0000   -0.2958    0.0000   -0.0197    0.0000    0.0150    0.0000
y     0.0010    0.0000    0.0000    0.0000    0.0000    0.0000
z     5.7897    0.0000    0.9282    0.0000   -0.2958    0.0000   -0.0197    0.0000    0.0150    0.0000
z     0.0010    0.0000    0.0000    0.0000    0.0000    0.0000
 total charge-density along one line
x    10.0000    0.0000    3.8297    0.0000    0.5247    0.0000   -0.0076    0.0000    0.0057    0.0000
x     0.0026    0.0000   -0.0007    0.0000    0.0003    0.0000   -0.0002    0.0000    0.0001    0.0000
x    -0.0001    0.0000    0.0000    0.0000    0.0000    0.0000    0.0000    0.0000    0.0000    0.0000
y    10.0000    0.0000    3.8297    0.0000    0.5247    0.0000   -0.0076    0.0000    0.0057    0.0000
y     0.0026    0.0000   -0.0007    0.0000    0.0003    0.0000   -0.0002    0.0000    0.0001    0.0000
y    -0.0001    0.0000    0.0000    0.0000    0.0000    0.0000    0.0000    0.0000    0.0000    0.0000
z    10.0000    0.0000    3.8297    0.0000    0.5247    0.0000   -0.0076    0.0000    0.0057    0.0000
z     0.0026    0.0000   -0.0007    0.0000    0.0003    0.0000   -0.0002    0.0000    0.0001    0.0000
z    -0.0001    0.0000    0.0000    0.0000    0.0000    0.0000    0.0000    0.0000    0.0000    0.0000
 
 pseudopotential strength for first ion, spin component:           1
 -2.843   0.000   0.000  -0.014   0.000  -3.061   0.000   0.000
  0.000  -2.833   0.000   0.000  -0.014   0.000  -3.052   0.000
  0.000   0.000  -2.853   0.000   0.000   0.000   0.000  -3.071
 -0.014   0.000   0.000  -2.833   0.000  -0.014   0.000   0.000
  0.000  -0.014   0.000   0.000  -2.843   0.000  -0.014   0.000
 -3.061   0.000   0.000  -0.014   0.000  -3.247   0.000   0.000
  0.000  -3.052   0.000   0.000  -0.014   0.000  -3.238   0.000
  0.000   0.000  -3.071   0.000   0.000   0.000   0.000  -3.256
 -0.014   0.000   0.000  -3.052   0.000  -0.013   0.000   0.000
  0.000  -0.014   0.000   0.000  -3.061   0.000  -0.013   0.000
  0.000   0.000   0.000   0.000   0.000   0.000   0.000   0.000
  0.000   0.000   0.000   0.000   0.000   0.000   0.000   0.000
  0.000   0.000   0.000   0.000   0.000   0.000   0.000   0.000
  0.000   0.000   0.000   0.000   0.000   0.000   0.000   0.000
  0.000   0.000   0.000   0.000   0.000   0.000   0.000   0.000
  0.000   0.000   0.000   0.000   0.000   0.000   0.000   0.000
  0.000   0.000   0.000   0.000   0.000   0.000   0.000   0.000
  0.000   0.000   0.000   0.000   0.000   0.000   0.000   0.000
 total augmentation occupancy for first ion, spin component:           1
  2.705   0.000   0.000  -0.229   0.000  -1.267   0.000   0.000   0.050   0.000   0.000   0.000   0.000   0.000   0.000   0.000
  0.000   2.867   0.000   0.000  -0.229   0.000  -1.302   0.000   0.000   0.050   0.000   0.000   0.000   0.000   0.000   0.000
  0.000   0.000   2.542   0.000   0.000   0.000   0.000  -1.232   0.000   0.000   0.000   0.000   0.000   0.000   0.000   0.000
 -0.229   0.000   0.000   2.867   0.000   0.050   0.000   0.000  -1.302   0.000   0.000   0.000   0.000   0.000   0.000   0.000
  0.000  -0.229   0.000   0.000   2.705   0.000   0.050   0.000   0.000  -1.267   0.000   0.000   0.000   0.000   0.000   0.000
 -1.267   0.000   0.000   0.050   0.000   1.609   0.000   0.000   0.077   0.000   0.000   0.000   0.000   0.000   0.000   0.000
  0.000  -1.302   0.000   0.000   0.050   0.000   1.554   0.000   0.000   0.077   0.000   0.000   0.000   0.000   0.000   0.000
  0.000   0.000  -1.232   0.000   0.000   0.000   0.000   1.663   0.000   0.000   0.000   0.000   0.000   0.000   0.000   0.000
  0.050   0.000   0.000  -1.302   0.000   0.077   0.000   0.000   1.554   0.000   0.000   0.000   0.000   0.000   0.000   0.000
  0.000   0.050   0.000   0.000  -1.267   0.000   0.077   0.000   0.000   1.609   0.000   0.000   0.000   0.000   0.000   0.000
  0.000   0.000   0.000   0.000   0.000   0.000   0.000   0.000   0.000   0.000   1.815  -0.276   0.000   0.000   0.000   0.000
  0.000   0.000   0.000   0.000   0.000   0.000   0.000   0.000   0.000   0.000  -0.276   0.044   0.000   0.000   0.000   0.000
  0.000   0.000   0.000   0.000   0.000   0.000   0.000   0.000   0.000   0.000   0.000   0.000   0.194   0.000   0.000  -0.011
  0.000   0.000   0.000   0.000   0.000   0.000   0.000   0.000   0.000   0.000   0.000   0.000   0.000   0.194   0.000   0.000
  0.000   0.000   0.000   0.000   0.000   0.000   0.000   0.000   0.000   0.000   0.000   0.000   0.000   0.000   0.194   0.000
  0.000   0.000   0.000   0.000   0.000   0.000   0.000   0.000   0.000   0.000   0.000   0.000  -0.011   0.000   0.000   0.001
  0.000   0.000   0.000   0.000   0.000   0.000   0.000   0.000   0.000   0.000   0.000   0.000   0.000  -0.011   0.000   0.000
  0.000   0.000   0.000   0.000   0.000   0.000   0.000   0.000   0.000   0.000   0.000   0.000   0.000   0.000  -0.011   0.000


------------------------ aborting loop because EDIFF is reached ----------------------------------------


    CHARGE:  cpu time    0.05: real time    0.05
    FORLOC:  cpu time    0.00: real time    0.00
    FORNL :  cpu time    0.08: real time    0.08
    STRESS:  cpu time    0.24: real time    0.24
    FORCOR:  cpu time    0.02: real time    0.03
    FORHAR:  cpu time    0.01: real time    0.01
    MIXING:  cpu time    0.00: real time    0.00
    OFIELD:  cpu time    0.00: real time    0.00

  FORCE on cell =-STRESS in cart. coord.  units (eV):
  Direction    XX          YY          ZZ          XY          YZ          ZX
  --------------------------------------------------------------------------------------
  Alpha Z    39.37256    39.37256    39.37256
  Ewald    -271.98702  -271.98702  -271.98702     0.00000     0.00000     0.00000
  Hartree    42.24246    42.24246    42.24246     0.00000     0.00000     0.00000
  E(xc)     -52.16977   -52.16977   -52.16977     0.00000     0.00000     0.00000
  Local      37.07525    37.07517    37.07515     0.00007     0.00003     0.00005
  n-local    -8.43734    -6.53300    -2.71930     0.45340    -0.20835     2.47433
  augment    74.33539    74.33548    74.33550    -0.00008    -0.00003    -0.00006
  Kinetic   134.70158   134.88261   137.93803     0.31825    -0.58032     2.02514
  Fock        0.00000     0.00000     0.00000     0.00000     0.00000     0.00000
  -------------------------------------------------------------------------------------
  Total      -1.18691    -1.18691    -1.18691     0.00000     0.00000     0.00000
  in kB    -114.87906  -114.87906  -114.87906     0.00000     0.00000     0.00000
  external pressure =     -114.88 kB  Pullay stress =        0.00 kB


 VOLUME and BASIS-vectors are now :
 -----------------------------------------------------------------------------
  energy-cutoff  :      350.00
  volume of cell :       16.55
      direct lattice vectors                 reciprocal lattice vectors
     2.860671194  0.000000000  0.000000000     0.349568312 -0.201823359 -0.142710666
     1.430335597  2.477413926  0.000000000     0.000000000  0.403646718 -0.142710666
     1.430335597  0.825804642  2.335728249     0.000000000  0.000000000  0.428131997

  length of vectors
     2.860671194  2.860671194  2.860671194     0.428131997  0.428131997  0.428131997


 FORCES acting on ions
    electron-ion (+dipol)            ewald-force                    non-local-force                 convergence-correction
 -----------------------------------------------------------------------------------------------
   -.276E-13 0.397E-14 0.439E-14   -.100E-14 -.471E-15 -.408E-15   -.331E-23 -.414E-22 0.000E+00   -.395E-13 -.214E-13 -.126E-13
 -----------------------------------------------------------------------------------------------
   -.276E-13 0.397E-14 0.439E-14   -.100E-14 -.471E-15 -.408E-15   -.331E-23 -.414E-22 0.000E+00   -.395E-13 -.214E-13 -.126E-13
 
 
 POSITION                                       TOTAL-FORCE (eV/Angst)
 -----------------------------------------------------------------------------------
      0.00000      0.00000      0.00000         0.000000      0.000000      0.000000
 -----------------------------------------------------------------------------------
    total drift:                                0.000000      0.000000      0.000000


--------------------------------------------------------------------------------------------------------



  FREE ENERGIE OF THE ION-ELECTRON SYSTEM (eV)
  ---------------------------------------------------
  free  energy   TOTEN  =        -5.17313871 eV

  energy  without entropy=       -5.16646526  energy(sigma->0) =       -5.17091423
 


--------------------------------------------------------------------------------------------------------


    POTLOK:  cpu time    0.03: real time    0.03


--------------------------------------------------------------------------------------------------------


 stress matrix after NEB project (eV)
     -1.18691      0.00000      0.00000
      0.00000     -1.18691      0.00000
      0.00000      0.00000     -1.18691
  FORCES: max atom, RMS     0.000000    0.000000
  FORCE total and by dimension    0.000000    0.000000
  Stress total and by dimension    2.055795    1.186914


--------------------------------------------------------------------------------------------------------


  
 reached required accuracy - stopping structural energy minimisation
 writing wavefunctions
     LOOP+:  cpu time    6.40: real time    7.06
    4ORBIT:  cpu time    0.00: real time    0.00

 total amount of memory used by VASP on root node    35882. kBytes
========================================================================

   base      :      30000. kBytes
   nonl-proj :       2250. kBytes
   grid      :       1216. kBytes
   one-center:         15. kBytes
   wavefun   :       2401. kBytes
 
  
  
 General timing and accounting informations for this job:
 ========================================================
  
                  Total CPU time used (sec):        6.788
                            User time (sec):        6.718
                          System time (sec):        0.070
                         Elapsed time (sec):        7.493
  
                   Maximum memory used (kb):           0.
                   Average memory used (kb):           0.
  
                          Minor page faults:         5546
                          Major page faults:            0
                 Voluntary context switches:         1246
