<?xml version="1.0" encoding="ISO-8859-1"?>
<modeling>
 <generator>
  <i name="program" type="string">vasp </i>
  <i name="version" type="string">5.3.5  </i>
  <i name="subversion" type="string">31Mar14 (build Jan 09 2015 16:57:47) complex                          serial </i>
  <i name="platform" type="string">LinuxIFC </i>
  <i name="date" type="string">2015 03 24 </i>
  <i name="time" type="string">14:25:57 </i>
 </generator>
 <incar>
  <i type="string" name="PREC">normal</i>
  <i type="int" name="IBRION">     2</i>
  <i type="int" name="NSW">    30</i>
  <i type="int" name="ISIF">     2</i>
  <i name="ENCUT">    350.00000000</i>
 </incar>
 <kpoints>
  <generation param="Monkhorst-Pack">
   <v type="int" name="divisions">       8        8        8 </v>
   <v name="usershift">      0.00000000       0.00000000       0.00000000 </v>
   <v name="genvec1">      0.12500000       0.00000000       0.00000000 </v>
   <v name="genvec2">      0.00000000       0.12500000       0.00000000 </v>
   <v name="genvec3">      0.00000000       0.00000000       0.12500000 </v>
   <v name="shift">      0.50000000       0.50000000       0.50000000 </v>
  </generation>
  <varray name="kpointlist" >
   <v>       0.06250000       0.06250000       0.06250000 </v>
   <v>       0.18750000       0.06250000       0.06250000 </v>
   <v>       0.31250000       0.06250000       0.06250000 </v>
   <v>       0.43750000       0.06250000       0.06250000 </v>
   <v>      -0.43750000       0.06250000       0.06250000 </v>
   <v>      -0.31250000       0.06250000       0.06250000 </v>
   <v>      -0.18750000       0.06250000       0.06250000 </v>
   <v>      -0.06250000       0.06250000       0.06250000 </v>
   <v>       0.18750000       0.18750000       0.06250000 </v>
   <v>       0.31250000       0.18750000       0.06250000 </v>
   <v>       0.43750000       0.18750000       0.06250000 </v>
   <v>      -0.43750000       0.18750000       0.06250000 </v>
   <v>      -0.31250000       0.18750000       0.06250000 </v>
   <v>      -0.18750000       0.18750000       0.06250000 </v>
   <v>      -0.06250000       0.18750000       0.06250000 </v>
   <v>       0.31250000       0.31250000       0.06250000 </v>
   <v>       0.43750000       0.31250000       0.06250000 </v>
   <v>      -0.43750000       0.31250000       0.06250000 </v>
   <v>      -0.31250000       0.31250000       0.06250000 </v>
   <v>      -0.18750000       0.31250000       0.06250000 </v>
   <v>      -0.06250000       0.31250000       0.06250000 </v>
   <v>       0.43750000       0.43750000       0.06250000 </v>
   <v>      -0.43750000       0.43750000       0.06250000 </v>
   <v>      -0.31250000       0.43750000       0.06250000 </v>
   <v>      -0.18750000       0.43750000       0.06250000 </v>
   <v>      -0.06250000       0.43750000       0.06250000 </v>
   <v>      -0.43750000      -0.43750000       0.06250000 </v>
   <v>      -0.31250000      -0.43750000       0.06250000 </v>
   <v>      -0.18750000      -0.43750000       0.06250000 </v>
   <v>      -0.31250000      -0.31250000       0.06250000 </v>
   <v>      -0.18750000      -0.31250000       0.06250000 </v>
   <v>      -0.18750000      -0.18750000       0.06250000 </v>
   <v>       0.18750000       0.18750000       0.18750000 </v>
   <v>       0.31250000       0.18750000       0.18750000 </v>
   <v>       0.43750000       0.18750000       0.18750000 </v>
   <v>      -0.43750000       0.18750000       0.18750000 </v>
   <v>      -0.31250000       0.18750000       0.18750000 </v>
   <v>      -0.18750000       0.18750000       0.18750000 </v>
   <v>       0.31250000       0.31250000       0.18750000 </v>
   <v>       0.43750000       0.31250000       0.18750000 </v>
   <v>      -0.43750000       0.31250000       0.18750000 </v>
   <v>      -0.31250000       0.31250000       0.18750000 </v>
   <v>      -0.18750000       0.31250000       0.18750000 </v>
   <v>       0.43750000       0.43750000       0.18750000 </v>
   <v>      -0.43750000       0.43750000       0.18750000 </v>
   <v>      -0.31250000       0.43750000       0.18750000 </v>
   <v>      -0.18750000       0.43750000       0.18750000 </v>
   <v>      -0.43750000      -0.43750000       0.18750000 </v>
   <v>      -0.31250000      -0.43750000       0.18750000 </v>
   <v>      -0.31250000      -0.31250000       0.18750000 </v>
   <v>       0.31250000       0.31250000       0.31250000 </v>
   <v>       0.43750000       0.31250000       0.31250000 </v>
   <v>      -0.43750000       0.31250000       0.31250000 </v>
   <v>      -0.31250000       0.31250000       0.31250000 </v>
   <v>       0.43750000       0.43750000       0.31250000 </v>
   <v>      -0.43750000       0.43750000       0.31250000 </v>
   <v>      -0.31250000       0.43750000       0.31250000 </v>
   <v>      -0.43750000      -0.43750000       0.31250000 </v>
   <v>       0.43750000       0.43750000       0.43750000 </v>
   <v>      -0.43750000       0.43750000       0.43750000 </v>
  </varray>
  <varray name="weights" >
   <v>       0.00390625 </v>
   <v>       0.01171875 </v>
   <v>       0.01171875 </v>
   <v>       0.01171875 </v>
   <v>       0.01171875 </v>
   <v>       0.01171875 </v>
   <v>       0.01171875 </v>
   <v>       0.01171875 </v>
   <v>       0.01171875 </v>
   <v>       0.02343750 </v>
   <v>       0.02343750 </v>
   <v>       0.02343750 </v>
   <v>       0.02343750 </v>
   <v>       0.02343750 </v>
   <v>       0.02343750 </v>
   <v>       0.01171875 </v>
   <v>       0.02343750 </v>
   <v>       0.02343750 </v>
   <v>       0.02343750 </v>
   <v>       0.02343750 </v>
   <v>       0.02343750 </v>
   <v>       0.01171875 </v>
   <v>       0.02343750 </v>
   <v>       0.02343750 </v>
   <v>       0.02343750 </v>
   <v>       0.02343750 </v>
   <v>       0.01171875 </v>
   <v>       0.02343750 </v>
   <v>       0.02343750 </v>
   <v>       0.01171875 </v>
   <v>       0.02343750 </v>
   <v>       0.01171875 </v>
   <v>       0.00390625 </v>
   <v>       0.01171875 </v>
   <v>       0.01171875 </v>
   <v>       0.01171875 </v>
   <v>       0.01171875 </v>
   <v>       0.01171875 </v>
   <v>       0.01171875 </v>
   <v>       0.02343750 </v>
   <v>       0.02343750 </v>
   <v>       0.02343750 </v>
   <v>       0.02343750 </v>
   <v>       0.01171875 </v>
   <v>       0.02343750 </v>
   <v>       0.02343750 </v>
   <v>       0.02343750 </v>
   <v>       0.01171875 </v>
   <v>       0.02343750 </v>
   <v>       0.01171875 </v>
   <v>       0.00390625 </v>
   <v>       0.01171875 </v>
   <v>       0.01171875 </v>
   <v>       0.01171875 </v>
   <v>       0.01171875 </v>
   <v>       0.02343750 </v>
   <v>       0.02343750 </v>
   <v>       0.01171875 </v>
   <v>       0.00390625 </v>
   <v>       0.01171875 </v>
  </varray>
 </kpoints>
 <parameters>
  <separator name="general" >
   <i type="string" name="SYSTEM">unknown system</i>
   <i type="logical" name="LCOMPAT"> F  </i>
  </separator>
  <separator name="electronic" >
   <i type="string" name="PREC">normal</i>
   <i name="ENMAX">    350.00000000</i>
   <i name="ENAUG">    416.23000000</i>
   <i name="EDIFF">      0.00010000</i>
   <i type="int" name="IALGO">    38</i>
   <i type="int" name="IWAVPR">    11</i>
   <i type="int" name="NBANDS">     9</i>
   <i name="NELECT">     10.00000000</i>
   <i type="int" name="TURBO">     0</i>
   <i type="int" name="IRESTART">     0</i>
   <i type="int" name="NREBOOT">     0</i>
   <i type="int" name="NMIN">     0</i>
   <i name="EREF">      0.00000000</i>
   <separator name="electronic smearing" >
    <i type="int" name="ISMEAR">     1</i>
    <i name="SIGMA">      0.20000000</i>
    <i name="KSPACING">      0.50000000</i>
    <i type="logical" name="KGAMMA"> T  </i>
   </separator>
   <separator name="electronic projectors" >
    <i type="logical" name="LREAL"> F  </i>
    <v name="ROPT">      0.00000000</v>
    <i type="int" name="LMAXPAW">  -100</i>
    <i type="int" name="LMAXMIX">     2</i>
    <i type="logical" name="NLSPLINE"> F  </i>
   </separator>
   <separator name="electronic startup" >
    <i type="int" name="ISTART">     0</i>
    <i type="int" name="ICHARG">     2</i>
    <i type="int" name="INIWAV">     1</i>
   </separator>
   <separator name="electronic spin" >
    <i type="int" name="ISPIN">     1</i>
    <i type="logical" name="LNONCOLLINEAR"> F  </i>
    <v name="MAGMOM">      1.00000000</v>
    <i name="NUPDOWN">     -1.00000000</i>
    <i type="logical" name="LSORBIT"> F  </i>
    <v name="SAXIS">      0.00000000      0.00000000      1.00000000</v>
    <i type="logical" name="LSPIRAL"> F  </i>
    <v name="QSPIRAL">      0.00000000      0.00000000      0.00000000</v>
    <i type="logical" name="LZEROZ"> F  </i>
   </separator>
   <separator name="electronic exchange-correlation" >
    <i type="logical" name="LASPH"> F  </i>
    <i type="logical" name="LMETAGGA"> F  </i>
   </separator>
   <separator name="electronic convergence" >
    <i type="int" name="NELM">    60</i>
    <i type="int" name="NELMDL">    -5</i>
    <i type="int" name="NELMIN">     2</i>
    <i name="ENINI">    350.00000000</i>
    <separator name="electronic convergence detail" >
     <i type="logical" name="LDIAG"> T  </i>
     <i type="logical" name="LSUBROT"> F  </i>
     <i name="WEIMIN">      0.00100000</i>
     <i name="EBREAK">      0.00000278</i>
     <i name="DEPER">      0.30000000</i>
     <i type="int" name="NRMM">     4</i>
     <i name="TIME">      0.40000000</i>
    </separator>
   </separator>
   <separator name="electronic mixer" >
    <i name="AMIX">      0.40000000</i>
    <i name="BMIX">      1.00000000</i>
    <i name="AMIN">      0.10000000</i>
    <i name="AMIX_MAG">      1.60000000</i>
    <i name="BMIX_MAG">      1.00000000</i>
    <separator name="electronic mixer details" >
     <i type="int" name="IMIX">     4</i>
     <i type="int" name="MAXMIX">   -45</i>
     <i name="WC">    100.00000000</i>
     <i type="int" name="INIMIX">     1</i>
     <i type="int" name="MIXPRE">     1</i>
     <i type="int" name="MREMOVE">     5</i>
    </separator>
   </separator>
   <separator name="electronic dipolcorrection" >
    <i type="logical" name="LDIPOL"> F  </i>
    <i type="logical" name="LMONO"> F  </i>
    <i type="int" name="IDIPOL">     0</i>
    <i name="EPSILON">      1.00000000</i>
    <v name="DIPOL">   -100.00000000   -100.00000000   -100.00000000</v>
    <i name="EFIELD">      0.00000000</i>
   </separator>
  </separator>
  <separator name="grids" >
   <i type="int" name="NGX">    14</i>
   <i type="int" name="NGY">    14</i>
   <i type="int" name="NGZ">    14</i>
   <i type="int" name="NGXF">    28</i>
   <i type="int" name="NGYF">    28</i>
   <i type="int" name="NGZF">    28</i>
   <i type="logical" name="ADDGRID"> F  </i>
  </separator>
  <separator name="ionic" >
   <i type="int" name="NSW">    30</i>
   <i type="int" name="IBRION">     2</i>
   <i type="int" name="ISIF">     2</i>
   <i name="PSTRESS">      0.00000000</i>
   <i name="EDIFFG">      0.00100000</i>
   <i type="int" name="NFREE">     1</i>
   <i name="POTIM">      0.50000000</i>
   <i name="SMASS">     -3.00000000</i>
   <i name="SCALEE">      1.00000000</i>
  </separator>
  <separator name="ionic md" >
   <i name="TEBEG">      0.00010000</i>
   <i name="TEEND">      0.00010000</i>
   <i type="int" name="NBLOCK">     1</i>
   <i type="int" name="KBLOCK">    30</i>
   <i type="int" name="NPACO">   256</i>
   <i name="APACO">     16.00000000</i>
  </separator>
  <separator name="symmetry" >
   <i type="int" name="ISYM">     2</i>
   <i name="SYMPREC">      0.00001000</i>
  </separator>
  <separator name="dos" >
   <i type="logical" name="LORBIT"> F  </i>
   <v name="RWIGS">     -1.00000000</v>
   <i type="int" name="NEDOS">   301</i>
   <i name="EMIN">     10.00000000</i>
   <i name="EMAX">    -10.00000000</i>
   <i name="EFERMI">      0.00000000</i>
  </separator>
  <separator name="writing" >
   <i type="int" name="NWRITE">     2</i>
   <i type="logical" name="LWAVE"> T  </i>
   <i type="logical" name="LCHARG"> T  </i>
   <i type="logical" name="LPARD"> F  </i>
   <i type="logical" name="LVTOT"> F  </i>
   <i type="logical" name="LVHAR"> F  </i>
   <i type="logical" name="LELF"> F  </i>
   <i type="logical" name="LOPTICS"> F  </i>
   <v name="STM">      0.00000000      0.00000000      0.00000000      0.00000000      0.00000000      0.00000000      0.00000000</v>
  </separator>
  <separator name="performance" >
   <i type="int" name="NPAR">     1</i>
   <i type="int" name="NSIM">     4</i>
   <i type="int" name="NBLK">    -1</i>
   <i type="logical" name="LPLANE"> T  </i>
   <i type="logical" name="LSCALAPACK"> F  </i>
   <i type="logical" name="LSCAAWARE"> F  </i>
   <i type="logical" name="LSCALU"> F  </i>
   <i type="logical" name="LASYNC"> F  </i>
   <i type="logical" name="LORBITALREAL"> F  </i>
  </separator>
  <separator name="miscellaneous" >
   <i type="int" name="IDIOT">     3</i>
   <i type="logical" name="LMUSIC"> F  </i>
   <v name="POMASS">    106.42000000</v>
   <v name="DARWINR">      0.00000000</v>
   <v name="DARWINV">      1.00000000</v>
   <i type="logical" name="LCORR"> T  </i>
  </separator>
  <i type="logical" name="GGA_COMPAT"> T  </i>
  <i type="logical" name="LBERRY"> F  </i>
  <i type="int" name="ICORELEVEL">     0</i>
  <i type="logical" name="LDAU"> F  </i>
  <i type="int" name="I_CONSTRAINED_M">     0</i>
  <separator name="electronic exchange-correlation" >
   <i type="string" name="GGA">--</i>
   <i type="int" name="VOSKOWN">     0</i>
   <i type="logical" name="LHFCALC"> F  </i>
   <i type="string" name="PRECFOCK"></i>
   <i type="logical" name="LSYMGRAD"> F  </i>
   <i type="logical" name="LHFONE"> F  </i>
   <i type="logical" name="LRHFCALC"> F  </i>
   <i type="logical" name="LTHOMAS"> F  </i>
   <i type="logical" name="LMODELHF"> F  </i>
   <i name="ENCUT4O">     -1.00000000</i>
   <i type="int" name="EXXOEP">     0</i>
   <i type="int" name="FOURORBIT">     0</i>
   <i name="AEXX">      0.00000000</i>
   <i name="HFALPHA">      0.00000000</i>
   <i name="MCALPHA">      0.00000000</i>
   <i name="ALDAX">      1.00000000</i>
   <i name="AGGAX">      1.00000000</i>
   <i name="ALDAC">      1.00000000</i>
   <i name="AGGAC">      1.00000000</i>
   <i type="int" name="NKREDX">     1</i>
   <i type="int" name="NKREDY">     1</i>
   <i type="int" name="NKREDZ">     1</i>
   <i type="logical" name="SHIFTRED"> F  </i>
   <i type="logical" name="ODDONLY"> F  </i>
   <i type="logical" name="EVENONLY"> F  </i>
   <i type="int" name="LMAXFOCK">     0</i>
   <i type="int" name="NMAXFOCKAE">     0</i>
   <i type="logical" name="LFOCKAEDFT"> F  </i>
   <i name="HFSCREEN">      0.00000000</i>
   <i name="HFSCREENC">      0.00000000</i>
   <i type="int" name="NBANDSGWLOW">     0</i>
  </separator>
  <separator name="vdW DFT" >
   <i type="logical" name="LUSE_VDW"> F  </i>
   <i name="Zab_VDW">     -0.84910000</i>
   <i name="PARAM1">      0.12340000</i>
   <i name="PARAM2">      1.00000000</i>
   <i name="PARAM3">      0.00000000</i>
  </separator>
  <separator name="model GW" >
   <i type="int" name="MODEL_GW">     0</i>
   <i name="MODEL_EPS0">      9.93207707</i>
   <i name="MODEL_ALPHA">      1.00000000</i>
  </separator>
  <separator name="linear response parameters" >
   <i type="logical" name="LEPSILON"> F  </i>
   <i type="logical" name="LRPA"> F  </i>
   <i type="logical" name="LNABLA"> F  </i>
   <i type="logical" name="LVEL"> F  </i>
   <i type="int" name="KINTER">     0</i>
   <i name="CSHIFT">      0.10000000</i>
   <i name="OMEGAMAX">     -1.00000000</i>
   <i name="DEG_THRESHOLD">      0.00200000</i>
  </separator>
  <separator name="orbital magnetization" >
   <i type="logical" name="NUCIND"> F  </i>
   <v name="MAGPOS">      0.00000000      0.00000000      0.00000000</v>
   <i type="logical" name="LNICSALL"> T  </i>
   <i type="logical" name="ORBITALMAG"> F  </i>
   <i type="logical" name="LMAGBLOCH"> F  </i>
   <i type="logical" name="LCHIMAG"> F  </i>
   <i type="logical" name="LGAUGE"> T  </i>
   <i type="int" name="MAGATOM">     0</i>
   <v name="MAGDIPOL">      0.00000000      0.00000000      0.00000000</v>
   <v name="AVECCONST">      0.00000000      0.00000000      0.00000000</v>
  </separator>
  <separator name="response functions" >
   <i type="logical" name="LADDER"> F  </i>
   <i type="logical" name="LFXC"> F  </i>
   <i type="logical" name="LHARTREE"> T  </i>
   <i type="int" name="IBSE">     0</i>
   <i type="logical" name="LTCTE"> F  </i>
   <i type="logical" name="LTETE"> F  </i>
   <i type="logical" name="LTRIPLET"> F  </i>
   <i type="logical" name="LFXCEPS"> F  </i>
   <i type="logical" name="LFXHEG"> F  </i>
   <i type="logical" name="L2ORDER"> F  </i>
   <i type="logical" name="LUSEW"> F  </i>
   <i name="ENCUTGW">     -2.00000000</i>
   <i name="ENCUTGWSOFT">     -2.00000000</i>
   <i name="ENCUTLF">     -1.00000000</i>
   <i type="int" name="LMAXMP2">    -1</i>
   <i name="SCISSOR">      0.00000000</i>
   <i type="int" name="NOMEGA">     0</i>
   <i type="int" name="NOMEGAR">     0</i>
   <i type="int" name="NBANDSGW">    -1</i>
   <i type="int" name="NBANDSO">    -1</i>
   <i type="int" name="NBANDSV">    -1</i>
   <i type="int" name="NELM">     1</i>
   <i type="int" name="DIM">     3</i>
   <i type="int" name="ANTIRES">     0</i>
   <i name="OMEGAMAX">    -30.00000000</i>
   <i name="OMEGAMIN">    -30.00000000</i>
   <i name="OMEGATL">   -200.00000000</i>
   <i type="int" name="OMEGAGRID">     0</i>
   <i name="CSHIFT">     -0.10000000</i>
   <i type="logical" name="SELFENERGY"> F  </i>
   <i type="logical" name="LSPECTRAL"> F  </i>
   <i type="logical" name="ODDONLYGW"> F  </i>
   <i type="logical" name="EVENONLYGW"> F  </i>
   <i type="int" name="NKREDLFX">     1</i>
   <i type="int" name="NKREDLFY">     1</i>
   <i type="int" name="NKREDLFZ">     1</i>
   <i type="int" name="MAXMEM">  1800</i>
   <i type="int" name="TELESCOPE">     0</i>
   <i type="int" name="TAUPAR">     1</i>
  </separator>
  <separator name="External order field" >
   <i name="OFIELD_KAPPA">      0.00000000</i>
   <v name="OFIELD_K">      0.00000000      0.00000000      0.00000000</v>
   <i name="OFIELD_Q6_NEAR">      0.00000000</i>
   <i name="OFIELD_Q6_FAR">      0.00000000</i>
   <i name="OFIELD_A">      0.00000000</i>
  </separator>
 </parameters>
 <atominfo>
  <atoms>       1 </atoms>
  <types>       1 </types>
  <array name="atoms" >
   <dimension dim="1">ion</dimension>
   <field type="string">element</field>
   <field type="int">atomtype</field>
   <set>
    <rc><c>Pd</c><c>   1</c></rc>
   </set>
  </array>
  <array name="atomtypes" >
   <dimension dim="1">type</dimension>
   <field type="int">atomspertype</field>
   <field type="string">element</field>
   <field>mass</field>
   <field>valence</field>
   <field type="string">pseudopotential</field>
   <set>
    <rc><c>   1</c><c>Pd</c><c>    106.42000000</c><c>     10.00000000</c><c>  PAW_PBE Pd 04Jan2005                  </c></rc>
   </set>
  </array>
 </atominfo>
 <structure name="initialpos" >
  <crystal>
   <varray name="basis" >
    <v>       2.86067119       0.00000000       0.00000000 </v>
    <v>       1.43033560       2.47741393       0.00000000 </v>
    <v>       1.43033560       0.82580464       2.33572825 </v>
   </varray>
   <i name="volume">     16.55346178 </i>
   <varray name="rec_basis" >
    <v>       0.34956831      -0.20182336      -0.14271067 </v>
    <v>       0.00000000       0.40364672      -0.14271067 </v>
    <v>       0.00000000       0.00000000       0.42813200 </v>
   </varray>
  </crystal>
  <varray name="positions" >
   <v>       0.00000000       0.00000000       0.00000000 </v>
  </varray>
 </structure>
 <calculation>
  <scstep>
   <time name="dav">    0.61    0.61</time>
   <time name="total">    0.65    0.65</time>
   <energy>
    <i name="alphaZ">     39.37256499 </i>
    <i name="ewald">   -815.96101996 </i>
    <i name="hartreedc">   -135.93504451 </i>
    <i name="XCdc">    -29.48441413 </i>
    <i name="pawpsdc">    806.73831454 </i>
    <i name="pawaedc">   -744.51602449 </i>
    <i name="eentropy">      0.00162857 </i>
    <i name="bandstr">     97.52555999 </i>
    <i name="atom">    809.72612850 </i>
    <i name="e_fr_energy">     27.46769351 </i>
    <i name="e_wo_entrp">     27.46606494 </i>
    <i name="e_0_energy">     27.46715065 </i>
   </energy>
  </scstep>
  <scstep>
   <time name="dav">    0.61    0.61</time>
   <time name="total">    0.62    0.62</time>
   <energy>
    <i name="e_fr_energy">     -5.12295256 </i>
    <i name="e_wo_entrp">     -5.11444835 </i>
    <i name="e_0_energy">     -5.12011782 </i>
   </energy>
  </scstep>
  <scstep>
   <time name="dav">    0.68    0.68</time>
   <time name="total">    0.68    0.70</time>
   <energy>
    <i name="e_fr_energy">     -5.41284750 </i>
    <i name="e_wo_entrp">     -5.40366082 </i>
    <i name="e_0_energy">     -5.40978527 </i>
   </energy>
  </scstep>
  <scstep>
   <time name="dav">    0.66    0.66</time>
   <time name="total">    0.66    0.68</time>
   <energy>
    <i name="e_fr_energy">     -5.41429542 </i>
    <i name="e_wo_entrp">     -5.40511006 </i>
    <i name="e_0_energy">     -5.41123363 </i>
   </energy>
  </scstep>
  <scstep>
   <time name="dav">    0.67    0.67</time>
   <time name="total">    0.73    0.74</time>
   <energy>
    <i name="e_fr_energy">     -5.41431640 </i>
    <i name="e_wo_entrp">     -5.40513111 </i>
    <i name="e_0_energy">     -5.41125464 </i>
   </energy>
  </scstep>
  <scstep>
   <time name="dav">    0.60    0.60</time>
   <time name="total">    0.70    0.82</time>
   <energy>
    <i name="e_fr_energy">     -5.18024873 </i>
    <i name="e_wo_entrp">     -5.17349403 </i>
    <i name="e_0_energy">     -5.17799716 </i>
   </energy>
  </scstep>
  <scstep>
   <time name="dav">    0.61    0.61</time>
   <time name="total">    0.71    0.75</time>
   <energy>
    <i name="e_fr_energy">     -5.17542278 </i>
    <i name="e_wo_entrp">     -5.16870106 </i>
    <i name="e_0_energy">     -5.17318221 </i>
   </energy>
  </scstep>
  <scstep>
   <time name="dav">    0.62    0.62</time>
   <time name="total">    0.71    0.91</time>
   <energy>
    <i name="e_fr_energy">     -5.17313069 </i>
    <i name="e_wo_entrp">     -5.16645545 </i>
    <i name="e_0_energy">     -5.17090561 </i>
   </energy>
  </scstep>
  <scstep>
   <time name="dav">    0.39    0.39</time>
   <time name="total">    0.43    0.44</time>
   <energy>
    <i name="alphaZ">     39.37256499 </i>
    <i name="ewald">   -815.96101996 </i>
    <i name="hartreedc">   -126.71250985 </i>
    <i name="XCdc">    -29.75951885 </i>
    <i name="pawpsdc">    918.06283919 </i>
    <i name="pawaedc">   -857.86687796 </i>
    <i name="eentropy">     -0.00667345 </i>
    <i name="bandstr">     57.97192868 </i>
    <i name="atom">    809.72612850 </i>
    <i name="e_fr_energy">     -5.17313871 </i>
    <i name="e_wo_entrp">     -5.16646526 </i>
    <i name="e_0_energy">     -5.17091423 </i>
   </energy>
  </scstep>
  <structure>
   <crystal>
    <varray name="basis" >
     <v>       2.86067119       0.00000000       0.00000000 </v>
     <v>       1.43033560       2.47741393       0.00000000 </v>
     <v>       1.43033560       0.82580464       2.33572825 </v>
    </varray>
    <i name="volume">     16.55346178 </i>
    <varray name="rec_basis" >
     <v>       0.34956831      -0.20182336      -0.14271067 </v>
     <v>       0.00000000       0.40364672      -0.14271067 </v>
     <v>       0.00000000       0.00000000       0.42813200 </v>
    </varray>
   </crystal>
   <varray name="positions" >
    <v>       0.00000000       0.00000000       0.00000000 </v>
   </varray>
  </structure>
  <varray name="forces" >
   <v>       0.00000000       0.00000000       0.00000000 </v>
  </varray>
  <varray name="stress" >
   <v>    -114.87906225       0.00000000       0.00000000 </v>
   <v>       0.00000000    -114.87906225       0.00000000 </v>
   <v>       0.00000000       0.00000000    -114.87906225 </v>
  </varray>
  <energy>
   <i name="e_fr_energy">     -5.17313871 </i>
   <i name="e_wo_entrp">     -5.17091423 </i>
   <i name="e_0_energy">     -0.00667345 </i>
  </energy>
  <time name="totalsc">    6.40    7.06</time>
  <eigenvalues>
   <array>
    <dimension dim="1">band</dimension>
    <dimension dim="2">kpoint</dimension>
    <dimension dim="3">spin</dimension>
    <field>eigene</field>
    <field>occ</field>
    <set>
     <set comment="spin 1">
      <set comment="kpoint 1">
       <r>    1.8016    1.0000 </r>
       <r>    5.5697    1.0000 </r>
       <r>    5.6517    1.0000 </r>
       <r>    5.6517    1.0000 </r>
       <r>    6.9277    1.0000 </r>
       <r>    6.9277    1.0000 </r>
       <r>   25.1338    0.0000 </r>
       <r>   28.2246    0.0000 </r>
       <r>   29.2725    0.0000 </r>
      </set>
      <set comment="kpoint 2">
       <r>    2.4451    1.0000 </r>
       <r>    5.3769    1.0000 </r>
       <r>    5.8300    1.0000 </r>
       <r>    5.8519    1.0000 </r>
       <r>    6.7480    1.0000 </r>
       <r>    7.0267    1.0000 </r>
       <r>   24.9948    0.0000 </r>
       <r>   26.0340    0.0000 </r>
       <r>   28.7141    0.0000 </r>
      </set>
      <set comment="kpoint 3">
       <r>    3.4845    1.0000 </r>
       <r>    5.5739    1.0000 </r>
       <r>    5.8722    1.0000 </r>
       <r>    5.9000    1.0000 </r>
       <r>    6.9504    1.0000 </r>
       <r>    7.4936    1.0018 </r>
       <r>   20.8352    0.0000 </r>
       <r>   25.5063    0.0000 </r>
       <r>   28.4231    0.0000 </r>
      </set>
      <set comment="kpoint 4">
       <r>    3.6411    1.0000 </r>
       <r>    5.6100    1.0000 </r>
       <r>    5.7066    1.0000 </r>
       <r>    7.0821    1.0000 </r>
       <r>    7.5921    1.0105 </r>
       <r>    8.6278    0.0000 </r>
       <r>   16.4467    0.0000 </r>
       <r>   24.6587    0.0000 </r>
       <r>   27.2709    0.0000 </r>
      </set>
      <set comment="kpoint 5">
       <r>    3.5910    1.0000 </r>
       <r>    5.5193    1.0000 </r>
       <r>    5.6533    1.0000 </r>
       <r>    7.4459    1.0006 </r>
       <r>    7.9430    0.6306 </r>
       <r>    9.7059    0.0000 </r>
       <r>   14.5278    0.0000 </r>
       <r>   24.4006    0.0000 </r>
       <r>   27.3799    0.0000 </r>
      </set>
      <set comment="kpoint 6">
       <r>    3.6540    1.0000 </r>
       <r>    5.6551    1.0000 </r>
       <r>    5.7958    1.0000 </r>
       <r>    6.5003    1.0000 </r>
       <r>    7.6977    1.0324 </r>
       <r>    7.9190    0.7240 </r>
       <r>   17.8180    0.0000 </r>
       <r>   25.0230    0.0000 </r>
       <r>   27.7328    0.0000 </r>
      </set>
      <set comment="kpoint 7">
       <r>    3.1920    1.0000 </r>
       <r>    5.3530    1.0000 </r>
       <r>    5.8946    1.0000 </r>
       <r>    5.9389    1.0000 </r>
       <r>    6.8958    1.0000 </r>
       <r>    7.1955    1.0000 </r>
       <r>   22.3589    0.0000 </r>
       <r>   25.9554    0.0000 </r>
       <r>   28.5093    0.0000 </r>
      </set>
      <set comment="kpoint 8">
       <r>    2.1344    1.0000 </r>
       <r>    5.4247    1.0000 </r>
       <r>    5.7782    1.0000 </r>
       <r>    5.7827    1.0000 </r>
       <r>    6.7717    1.0000 </r>
       <r>    7.0054    1.0000 </r>
       <r>   25.3325    0.0000 </r>
       <r>   27.0809    0.0000 </r>
       <r>   28.7835    0.0000 </r>
      </set>
      <set comment="kpoint 9">
       <r>    2.7512    1.0000 </r>
       <r>    5.1448    1.0000 </r>
       <r>    6.0166    1.0000 </r>
       <r>    6.0391    1.0000 </r>
       <r>    6.5662    1.0000 </r>
       <r>    7.1512    1.0000 </r>
       <r>   25.3548    0.0000 </r>
       <r>   26.2618    0.0000 </r>
       <r>   27.5956    0.0000 </r>
      </set>
      <set comment="kpoint 10">
       <r>    3.7006    1.0000 </r>
       <r>    4.8965    1.0000 </r>
       <r>    5.8552    1.0000 </r>
       <r>    6.3555    1.0000 </r>
       <r>    6.8856    1.0000 </r>
       <r>    7.5985    1.0116 </r>
       <r>   22.7797    0.0000 </r>
       <r>   24.6879    0.0000 </r>
       <r>   27.1227    0.0000 </r>
      </set>
      <set comment="kpoint 11">
       <r>    4.0648    1.0000 </r>
       <r>    5.3521    1.0000 </r>
       <r>    5.6425    1.0000 </r>
       <r>    6.2396    1.0000 </r>
       <r>    7.6757    1.0280 </r>
       <r>    9.0948    0.0000 </r>
       <r>   18.1674    0.0000 </r>
       <r>   24.1343    0.0000 </r>
       <r>   25.2845    0.0000 </r>
      </set>
      <set comment="kpoint 12">
       <r>    4.0153    1.0000 </r>
       <r>    5.2065    1.0000 </r>
       <r>    6.0480    1.0000 </r>
       <r>    6.3737    1.0000 </r>
       <r>    7.8878    0.8306 </r>
       <r>   11.4154    0.0000 </r>
       <r>   14.6055    0.0000 </r>
       <r>   23.6041    0.0000 </r>
       <r>   24.7053    0.0000 </r>
      </set>
      <set comment="kpoint 13">
       <r>    4.1120    1.0000 </r>
       <r>    5.3268    1.0000 </r>
       <r>    5.9532    1.0000 </r>
       <r>    6.1869    1.0000 </r>
       <r>    7.5016    1.0021 </r>
       <r>   10.0203    0.0000 </r>
       <r>   16.8132    0.0000 </r>
       <r>   23.0574    0.0000 </r>
       <r>   25.6352    0.0000 </r>
      </set>
      <set comment="kpoint 14">
       <r>    4.0367    1.0000 </r>
       <r>    5.0644    1.0000 </r>
       <r>    5.6935    1.0000 </r>
       <r>    6.3189    1.0000 </r>
       <r>    6.7511    1.0000 </r>
       <r>    8.2211   -0.0354 </r>
       <r>   21.2611    0.0000 </r>
       <r>   23.3359    0.0000 </r>
       <r>   27.3735    0.0000 </r>
      </set>
      <set comment="kpoint 15">
       <r>    3.0170    1.0000 </r>
       <r>    5.1807    1.0000 </r>
       <r>    5.9374    1.0000 </r>
       <r>    6.0380    1.0000 </r>
       <r>    6.6490    1.0000 </r>
       <r>    7.2447    1.0000 </r>
       <r>   23.9791    0.0000 </r>
       <r>   25.4859    0.0000 </r>
       <r>   28.2440    0.0000 </r>
      </set>
      <set comment="kpoint 16">
       <r>    3.9383    1.0000 </r>
       <r>    4.4427    1.0000 </r>
       <r>    6.4129    1.0000 </r>
       <r>    6.8415    1.0000 </r>
       <r>    7.3711    1.0001 </r>
       <r>    7.5661    1.0070 </r>
       <r>   23.1079    0.0000 </r>
       <r>   24.1585    0.0000 </r>
       <r>   24.7778    0.0000 </r>
      </set>
      <set comment="kpoint 17">
       <r>    4.0774    1.0000 </r>
       <r>    4.3142    1.0000 </r>
       <r>    6.3305    1.0000 </r>
       <r>    7.1923    1.0000 </r>
       <r>    7.7366    1.0352 </r>
       <r>    9.3548    0.0000 </r>
       <r>   20.3351    0.0000 </r>
       <r>   22.1926    0.0000 </r>
       <r>   22.4889    0.0000 </r>
      </set>
      <set comment="kpoint 18">
       <r>    4.1724    1.0000 </r>
       <r>    4.6809    1.0000 </r>
       <r>    6.0061    1.0000 </r>
       <r>    6.8903    1.0000 </r>
       <r>    7.9515    0.5955 </r>
       <r>   12.4537    0.0000 </r>
       <r>   16.1711    0.0000 </r>
       <r>   20.4284    0.0000 </r>
       <r>   22.5810    0.0000 </r>
      </set>
      <set comment="kpoint 19">
       <r>    4.5451    1.0000 </r>
       <r>    5.0377    1.0000 </r>
       <r>    5.5332    1.0000 </r>
       <r>    6.6777    1.0000 </r>
       <r>    7.5355    1.0041 </r>
       <r>   12.6364    0.0000 </r>
       <r>   16.4865    0.0000 </r>
       <r>   19.0580    0.0000 </r>
       <r>   24.1388    0.0000 </r>
      </set>
      <set comment="kpoint 20">
       <r>    4.5935    1.0000 </r>
       <r>    5.1867    1.0000 </r>
       <r>    5.3684    1.0000 </r>
       <r>    6.4832    1.0000 </r>
       <r>    7.1002    1.0000 </r>
       <r>   10.0739    0.0000 </r>
       <r>   18.7239    0.0000 </r>
       <r>   20.8916    0.0000 </r>
       <r>   25.7734    0.0000 </r>
      </set>
      <set comment="kpoint 21">
       <r>    3.8058    1.0000 </r>
       <r>    5.6171    1.0000 </r>
       <r>    5.7284    1.0000 </r>
       <r>    6.0046    1.0000 </r>
       <r>    7.2443    1.0000 </r>
       <r>    8.0784    0.1186 </r>
       <r>   19.4411    0.0000 </r>
       <r>   24.9006    0.0000 </r>
       <r>   27.0549    0.0000 </r>
      </set>
      <set comment="kpoint 22">
       <r>    3.6887    1.0000 </r>
       <r>    3.9028    1.0000 </r>
       <r>    7.6137    1.0143 </r>
       <r>    7.6570    1.0237 </r>
       <r>    7.9916    0.4268 </r>
       <r>   10.0243    0.0000 </r>
       <r>   19.7503    0.0000 </r>
       <r>   20.7091    0.0000 </r>
       <r>   21.4207    0.0000 </r>
      </set>
      <set comment="kpoint 23">
       <r>    3.7394    1.0000 </r>
       <r>    3.9729    1.0000 </r>
       <r>    7.1983    1.0000 </r>
       <r>    7.6346    1.0186 </r>
       <r>    8.1294    0.0164 </r>
       <r>   12.3530    0.0000 </r>
       <r>   17.8321    0.0000 </r>
       <r>   19.0134    0.0000 </r>
       <r>   20.6666    0.0000 </r>
      </set>
      <set comment="kpoint 24">
       <r>    4.1108    1.0000 </r>
       <r>    4.5575    1.0000 </r>
       <r>    6.1932    1.0000 </r>
       <r>    7.1135    1.0000 </r>
       <r>    7.9108    0.7542 </r>
       <r>   14.2691    0.0000 </r>
       <r>   15.6759    0.0000 </r>
       <r>   18.2598    0.0000 </r>
       <r>   22.2005    0.0000 </r>
      </set>
      <set comment="kpoint 25">
       <r>    4.3291    1.0000 </r>
       <r>    5.0173    1.0000 </r>
       <r>    5.9333    1.0000 </r>
       <r>    6.3758    1.0000 </r>
       <r>    7.7489    1.0338 </r>
       <r>   12.5142    0.0000 </r>
       <r>   14.8335    0.0000 </r>
       <r>   21.4185    0.0000 </r>
       <r>   24.2752    0.0000 </r>
      </set>
      <set comment="kpoint 26">
       <r>    3.7682    1.0000 </r>
       <r>    5.4370    1.0000 </r>
       <r>    5.8099    1.0000 </r>
       <r>    6.8063    1.0000 </r>
       <r>    7.8307    0.9659 </r>
       <r>    9.8857    0.0000 </r>
       <r>   15.3420    0.0000 </r>
       <r>   24.3677    0.0000 </r>
       <r>   26.1429    0.0000 </r>
      </set>
      <set comment="kpoint 27">
       <r>    3.5502    1.0000 </r>
       <r>    3.7821    1.0000 </r>
       <r>    7.8344    0.9595 </r>
       <r>    7.9233    0.7082 </r>
       <r>    8.1464   -0.0040 </r>
       <r>   11.4014    0.0000 </r>
       <r>   17.8874    0.0000 </r>
       <r>   20.0827    0.0000 </r>
       <r>   20.7818    0.0000 </r>
      </set>
      <set comment="kpoint 28">
       <r>    3.8776    1.0000 </r>
       <r>    4.0891    1.0000 </r>
       <r>    6.8396    1.0000 </r>
       <r>    7.5323    1.0038 </r>
       <r>    7.9685    0.5245 </r>
       <r>   10.9104    0.0000 </r>
       <r>   19.2379    0.0000 </r>
       <r>   20.0785    0.0000 </r>
       <r>   21.2203    0.0000 </r>
      </set>
      <set comment="kpoint 29">
       <r>    4.1876    1.0000 </r>
       <r>    4.9599    1.0000 </r>
       <r>    5.7763    1.0000 </r>
       <r>    6.5609    1.0000 </r>
       <r>    7.9039    0.7781 </r>
       <r>   10.6132    0.0000 </r>
       <r>   17.0457    0.0000 </r>
       <r>   22.9074    0.0000 </r>
       <r>   23.3146    0.0000 </r>
      </set>
      <set comment="kpoint 30">
       <r>    3.8920    1.0000 </r>
       <r>    4.1319    1.0000 </r>
       <r>    7.0589    1.0000 </r>
       <r>    7.2937    1.0000 </r>
       <r>    7.7862    1.0178 </r>
       <r>    8.4868   -0.0009 </r>
       <r>   21.7394    0.0000 </r>
       <r>   22.3453    0.0000 </r>
       <r>   22.5974    0.0000 </r>
      </set>
      <set comment="kpoint 31">
       <r>    4.1290    1.0000 </r>
       <r>    4.5982    1.0000 </r>
       <r>    5.8944    1.0000 </r>
       <r>    6.7558    1.0000 </r>
       <r>    7.3728    1.0001 </r>
       <r>    8.2103   -0.0351 </r>
       <r>   21.5414    0.0000 </r>
       <r>   23.4760    0.0000 </r>
       <r>   24.9802    0.0000 </r>
      </set>
      <set comment="kpoint 32">
       <r>    3.4894    1.0000 </r>
       <r>    4.7970    1.0000 </r>
       <r>    6.1306    1.0000 </r>
       <r>    6.4032    1.0000 </r>
       <r>    6.7233    1.0000 </r>
       <r>    7.3463    1.0000 </r>
       <r>   24.4187    0.0000 </r>
       <r>   25.9167    0.0000 </r>
       <r>   26.1891    0.0000 </r>
      </set>
      <set comment="kpoint 33">
       <r>    2.7136    1.0000 </r>
       <r>    5.4168    1.0000 </r>
       <r>    5.8519    1.0000 </r>
       <r>    5.8519    1.0000 </r>
       <r>    6.9189    1.0000 </r>
       <r>    6.9189    1.0000 </r>
       <r>   23.7303    0.0000 </r>
       <r>   26.0752    0.0000 </r>
       <r>   29.9573    0.0000 </r>
      </set>
      <set comment="kpoint 34">
       <r>    3.4906    1.0000 </r>
       <r>    5.1703    1.0000 </r>
       <r>    5.8856    1.0000 </r>
       <r>    6.1183    1.0000 </r>
       <r>    6.5774    1.0000 </r>
       <r>    7.6262    1.0168 </r>
       <r>   22.5699    0.0000 </r>
       <r>   24.4576    0.0000 </r>
       <r>   28.6049    0.0000 </r>
      </set>
      <set comment="kpoint 35">
       <r>    4.3553    1.0000 </r>
       <r>    5.1919    1.0000 </r>
       <r>    5.6314    1.0000 </r>
       <r>    6.2724    1.0000 </r>
       <r>    6.7832    1.0000 </r>
       <r>    9.0284    0.0000 </r>
       <r>   19.9148    0.0000 </r>
       <r>   22.0500    0.0000 </r>
       <r>   27.1694    0.0000 </r>
      </set>
      <set comment="kpoint 36">
       <r>    4.1958    1.0000 </r>
       <r>    5.2105    1.0000 </r>
       <r>    6.1381    1.0000 </r>
       <r>    6.1511    1.0000 </r>
       <r>    7.5570    1.0060 </r>
       <r>   11.1540    0.0000 </r>
       <r>   15.6841    0.0000 </r>
       <r>   22.1124    0.0000 </r>
       <r>   26.1897    0.0000 </r>
      </set>
      <set comment="kpoint 37">
       <r>    4.0674    1.0000 </r>
       <r>    5.1556    1.0000 </r>
       <r>    6.0626    1.0000 </r>
       <r>    6.2127    1.0000 </r>
       <r>    7.9813    0.4701 </r>
       <r>   11.0256    0.0000 </r>
       <r>   15.5303    0.0000 </r>
       <r>   23.1605    0.0000 </r>
       <r>   25.1676    0.0000 </r>
      </set>
      <set comment="kpoint 38">
       <r>    4.0667    1.0000 </r>
       <r>    4.9457    1.0000 </r>
       <r>    5.7612    1.0000 </r>
       <r>    6.4002    1.0000 </r>
       <r>    7.7862    1.0177 </r>
       <r>    8.3811   -0.0072 </r>
       <r>   19.7571    0.0000 </r>
       <r>   24.8129    0.0000 </r>
       <r>   24.9692    0.0000 </r>
      </set>
      <set comment="kpoint 39">
       <r>    3.7314    1.0000 </r>
       <r>    5.1920    1.0000 </r>
       <r>    5.7733    1.0000 </r>
       <r>    6.1218    1.0000 </r>
       <r>    7.3689    1.0001 </r>
       <r>    7.5059    1.0023 </r>
       <r>   21.0337    0.0000 </r>
       <r>   25.7306    0.0000 </r>
       <r>   26.6921    0.0000 </r>
      </set>
      <set comment="kpoint 40">
       <r>    4.4035    1.0000 </r>
       <r>    4.9225    1.0000 </r>
       <r>    5.4535    1.0000 </r>
       <r>    6.6616    1.0000 </r>
       <r>    7.1775    1.0000 </r>
       <r>    9.0946    0.0000 </r>
       <r>   20.0424    0.0000 </r>
       <r>   22.1749    0.0000 </r>
       <r>   25.2599    0.0000 </r>
      </set>
      <set comment="kpoint 41">
       <r>    4.7453    1.0000 </r>
       <r>    4.9234    1.0000 </r>
       <r>    5.2627    1.0000 </r>
       <r>    6.7773    1.0000 </r>
       <r>    7.5041    1.0022 </r>
       <r>   11.4660    0.0000 </r>
       <r>   17.6821    0.0000 </r>
       <r>   19.9471    0.0000 </r>
       <r>   23.3781    0.0000 </r>
      </set>
      <set comment="kpoint 42">
       <r>    4.5020    1.0000 </r>
       <r>    4.8239    1.0000 </r>
       <r>    5.6412    1.0000 </r>
       <r>    6.6905    1.0000 </r>
       <r>    7.8580    0.9114 </r>
       <r>   13.3800    0.0000 </r>
       <r>   15.0342    0.0000 </r>
       <r>   20.9273    0.0000 </r>
       <r>   21.8435    0.0000 </r>
      </set>
      <set comment="kpoint 43">
       <r>    4.3875    1.0000 </r>
       <r>    4.6670    1.0000 </r>
       <r>    5.6372    1.0000 </r>
       <r>    7.0354    1.0000 </r>
       <r>    7.5798    1.0087 </r>
       <r>   10.3847    0.0000 </r>
       <r>   18.9422    0.0000 </r>
       <r>   21.0941    0.0000 </r>
       <r>   22.8092    0.0000 </r>
      </set>
      <set comment="kpoint 44">
       <r>    4.0785    1.0000 </r>
       <r>    4.6088    1.0000 </r>
       <r>    6.1207    1.0000 </r>
       <r>    6.7508    1.0000 </r>
       <r>    7.9787    0.4812 </r>
       <r>    9.8159    0.0000 </r>
       <r>   18.5797    0.0000 </r>
       <r>   22.6073    0.0000 </r>
       <r>   23.5418    0.0000 </r>
      </set>
      <set comment="kpoint 45">
       <r>    4.2089    1.0000 </r>
       <r>    4.4376    1.0000 </r>
       <r>    6.0209    1.0000 </r>
       <r>    7.2520    1.0000 </r>
       <r>    7.9044    0.7766 </r>
       <r>   12.0404    0.0000 </r>
       <r>   18.0544    0.0000 </r>
       <r>   19.9874    0.0000 </r>
       <r>   20.6251    0.0000 </r>
      </set>
      <set comment="kpoint 46">
       <r>    4.3833    1.0000 </r>
       <r>    4.8377    1.0000 </r>
       <r>    5.5119    1.0000 </r>
       <r>    6.9409    1.0000 </r>
       <r>    8.1211    0.0287 </r>
       <r>   15.0586    0.0000 </r>
       <r>   16.3667    0.0000 </r>
       <r>   18.1830    0.0000 </r>
       <r>   19.3842    0.0000 </r>
      </set>
      <set comment="kpoint 47">
       <r>    4.5597    1.0000 </r>
       <r>    4.8458    1.0000 </r>
       <r>    5.3737    1.0000 </r>
       <r>    6.9281    1.0000 </r>
       <r>    7.8769    0.8627 </r>
       <r>   13.2060    0.0000 </r>
       <r>   16.8506    0.0000 </r>
       <r>   19.2403    0.0000 </r>
       <r>   20.9062    0.0000 </r>
      </set>
      <set comment="kpoint 48">
       <r>    3.8530    1.0000 </r>
       <r>    4.2012    1.0000 </r>
       <r>    6.8458    1.0000 </r>
       <r>    7.4060    1.0002 </r>
       <r>    8.0005    0.3901 </r>
       <r>   13.1157    0.0000 </r>
       <r>   17.0466    0.0000 </r>
       <r>   18.1916    0.0000 </r>
       <r>   21.9946    0.0000 </r>
      </set>
      <set comment="kpoint 49">
       <r>    4.0669    1.0000 </r>
       <r>    4.3358    1.0000 </r>
       <r>    6.3186    1.0000 </r>
       <r>    7.2692    1.0000 </r>
       <r>    8.1231    0.0256 </r>
       <r>   13.6673    0.0000 </r>
       <r>   17.4349    0.0000 </r>
       <r>   18.2567    0.0000 </r>
       <r>   19.9906    0.0000 </r>
      </set>
      <set comment="kpoint 50">
       <r>    3.9557    1.0000 </r>
       <r>    4.3366    1.0000 </r>
       <r>    6.5626    1.0000 </r>
       <r>    7.1199    1.0000 </r>
       <r>    8.0442    0.2230 </r>
       <r>   11.5314    0.0000 </r>
       <r>   17.6290    0.0000 </r>
       <r>   20.1409    0.0000 </r>
       <r>   22.5244    0.0000 </r>
      </set>
      <set comment="kpoint 51">
       <r>    3.5289    1.0000 </r>
       <r>    5.7805    1.0000 </r>
       <r>    5.7805    1.0000 </r>
       <r>    6.2729    1.0000 </r>
       <r>    7.3513    1.0000 </r>
       <r>    7.3513    1.0000 </r>
       <r>   19.2366    0.0000 </r>
       <r>   25.3568    0.0000 </r>
       <r>   29.5442    0.0000 </r>
      </set>
      <set comment="kpoint 52">
       <r>    3.9320    1.0000 </r>
       <r>    5.5397    1.0000 </r>
       <r>    5.9422    1.0000 </r>
       <r>    6.1102    1.0000 </r>
       <r>    7.2040    1.0000 </r>
       <r>    8.8926    0.0000 </r>
       <r>   18.0376    0.0000 </r>
       <r>   23.9454    0.0000 </r>
       <r>   26.7037    0.0000 </r>
      </set>
      <set comment="kpoint 53">
       <r>    4.5965    1.0000 </r>
       <r>    5.1753    1.0000 </r>
       <r>    5.5382    1.0000 </r>
       <r>    6.4575    1.0000 </r>
       <r>    7.2387    1.0000 </r>
       <r>   11.2191    0.0000 </r>
       <r>   17.5517    0.0000 </r>
       <r>   19.8182    0.0000 </r>
       <r>   26.5968    0.0000 </r>
      </set>
      <set comment="kpoint 54">
       <r>    4.2658    1.0000 </r>
       <r>    4.8714    1.0000 </r>
       <r>    5.9025    1.0000 </r>
       <r>    6.8660    1.0000 </r>
       <r>    7.6775    1.0284 </r>
       <r>   13.9810    0.0000 </r>
       <r>   15.3409    0.0000 </r>
       <r>   18.5188    0.0000 </r>
       <r>   24.1173    0.0000 </r>
      </set>
      <set comment="kpoint 55">
       <r>    3.8489    1.0000 </r>
       <r>    5.4338    1.0000 </r>
       <r>    5.9452    1.0000 </r>
       <r>    6.2659    1.0000 </r>
       <r>    7.9225    0.7111 </r>
       <r>    9.2964    0.0000 </r>
       <r>   16.5735    0.0000 </r>
       <r>   24.6382    0.0000 </r>
       <r>   26.2607    0.0000 </r>
      </set>
      <set comment="kpoint 56">
       <r>    4.3303    1.0000 </r>
       <r>    5.0325    1.0000 </r>
       <r>    5.7998    1.0000 </r>
       <r>    6.4191    1.0000 </r>
       <r>    7.7585    1.0315 </r>
       <r>   11.5488    0.0000 </r>
       <r>   15.7810    0.0000 </r>
       <r>   22.3125    0.0000 </r>
       <r>   23.4715    0.0000 </r>
      </set>
      <set comment="kpoint 57">
       <r>    4.4727    1.0000 </r>
       <r>    4.8731    1.0000 </r>
       <r>    5.5287    1.0000 </r>
       <r>    6.8638    1.0000 </r>
       <r>    7.8768    0.8630 </r>
       <r>   14.3721    0.0000 </r>
       <r>   15.6039    0.0000 </r>
       <r>   18.5958    0.0000 </r>
       <r>   21.5746    0.0000 </r>
      </set>
      <set comment="kpoint 58">
       <r>    4.2241    1.0000 </r>
       <r>    4.9420    1.0000 </r>
       <r>    5.9479    1.0000 </r>
       <r>    6.5547    1.0000 </r>
       <r>    7.8712    0.8783 </r>
       <r>   12.9353    0.0000 </r>
       <r>   14.8119    0.0000 </r>
       <r>   20.7962    0.0000 </r>
       <r>   24.4599    0.0000 </r>
      </set>
      <set comment="kpoint 59">
       <r>    3.5263    1.0000 </r>
       <r>    5.6071    1.0000 </r>
       <r>    5.6071    1.0000 </r>
       <r>    7.8582    0.9110 </r>
       <r>    7.8582    0.9110 </r>
       <r>    8.6001    0.0000 </r>
       <r>   15.2421    0.0000 </r>
       <r>   24.4861    0.0000 </r>
       <r>   28.1303    0.0000 </r>
      </set>
      <set comment="kpoint 60">
       <r>    3.8244    1.0000 </r>
       <r>    5.3656    1.0000 </r>
       <r>    5.8406    1.0000 </r>
       <r>    6.8126    1.0000 </r>
       <r>    7.8302    0.9668 </r>
       <r>   10.7233    0.0000 </r>
       <r>   14.5732    0.0000 </r>
       <r>   23.9596    0.0000 </r>
       <r>   26.1421    0.0000 </r>
      </set>
     </set>
    </set>
   </array>
  </eigenvalues>
  <separator name="orbital magnetization" >
   <v name="MAGDIPOLOUT">      0.00000000      0.00000000      0.00000000</v>
  </separator>
  <dos>
   <i name="efermi">      7.97424935 </i>
   <total>
    <array>
     <dimension dim="1">gridpoints</dimension>
     <dimension dim="2">spin</dimension>
     <field>energy</field>
     <field>total</field>
     <field>integrated</field>
     <set>
      <set comment="spin 1">
       <r>    -0.1984     0.0000     0.0000 </r>
       <r>    -0.0912     0.0000     0.0000 </r>
       <r>     0.0160     0.0000     0.0000 </r>
       <r>     0.1232     0.0000     0.0000 </r>
       <r>     0.2304     0.0000     0.0000 </r>
       <r>     0.3375     0.0000     0.0000 </r>
       <r>     0.4447     0.0000     0.0000 </r>
       <r>     0.5519     0.0000     0.0000 </r>
       <r>     0.6591     0.0000     0.0000 </r>
       <r>     0.7663     0.0000     0.0000 </r>
       <r>     0.8735     0.0000     0.0000 </r>
       <r>     0.9807     0.0000     0.0000 </r>
       <r>     1.0878     0.0000     0.0000 </r>
       <r>     1.1950     0.0000     0.0000 </r>
       <r>     1.3022    -0.0001     0.0000 </r>
       <r>     1.4094    -0.0006    -0.0001 </r>
       <r>     1.5166    -0.0016    -0.0002 </r>
       <r>     1.6238     0.0014    -0.0001 </r>
       <r>     1.7310     0.0153     0.0015 </r>
       <r>     1.8381     0.0268     0.0044 </r>
       <r>     1.9453     0.0249     0.0071 </r>
       <r>     2.0525     0.0475     0.0122 </r>
       <r>     2.1597     0.0861     0.0214 </r>
       <r>     2.2669     0.0774     0.0297 </r>
       <r>     2.3741     0.0662     0.0368 </r>
       <r>     2.4812     0.0840     0.0458 </r>
       <r>     2.5884     0.0802     0.0544 </r>
       <r>     2.6956     0.0911     0.0642 </r>
       <r>     2.8028     0.1156     0.0766 </r>
       <r>     2.9100     0.1288     0.0904 </r>
       <r>     3.0172     0.1839     0.1101 </r>
       <r>     3.1244     0.2052     0.1321 </r>
       <r>     3.2315     0.1252     0.1455 </r>
       <r>     3.3387     0.0717     0.1532 </r>
       <r>     3.4459     0.2269     0.1775 </r>
       <r>     3.5531     0.5691     0.2385 </r>
       <r>     3.6603     0.9750     0.3430 </r>
       <r>     3.7675     1.3830     0.4913 </r>
       <r>     3.8747     1.6600     0.6692 </r>
       <r>     3.9818     2.0278     0.8865 </r>
       <r>     4.0890     2.6077     1.1660 </r>
       <r>     4.1962     2.7306     1.4587 </r>
       <r>     4.3034     2.3944     1.7154 </r>
       <r>     4.4106     2.2380     1.9552 </r>
       <r>     4.5178     2.1548     2.1862 </r>
       <r>     4.6250     1.8766     2.3874 </r>
       <r>     4.7321     1.5532     2.5538 </r>
       <r>     4.8393     1.6703     2.7329 </r>
       <r>     4.9465     2.0164     2.9490 </r>
       <r>     5.0537     1.9771     3.1609 </r>
       <r>     5.1609     1.8271     3.3568 </r>
       <r>     5.2681     1.8708     3.5573 </r>
       <r>     5.3753     2.0021     3.7719 </r>
       <r>     5.4824     2.2045     4.0082 </r>
       <r>     5.5896     2.4643     4.2723 </r>
       <r>     5.6968     2.7198     4.5638 </r>
       <r>     5.8040     3.0073     4.8862 </r>
       <r>     5.9112     3.3017     5.2401 </r>
       <r>     6.0184     3.1850     5.5815 </r>
       <r>     6.1256     2.5832     5.8583 </r>
       <r>     6.2327     2.1182     6.0854 </r>
       <r>     6.3399     2.1010     6.3106 </r>
       <r>     6.4471     2.0181     6.5269 </r>
       <r>     6.5543     1.7004     6.7091 </r>
       <r>     6.6615     1.8012     6.9022 </r>
       <r>     6.7687     2.4388     7.1636 </r>
       <r>     6.8759     2.7818     7.4618 </r>
       <r>     6.9830     2.3735     7.7162 </r>
       <r>     7.0902     1.9827     7.9287 </r>
       <r>     7.1974     2.1442     8.1585 </r>
       <r>     7.3046     2.1490     8.3889 </r>
       <r>     7.4118     1.8205     8.5840 </r>
       <r>     7.5190     1.9051     8.7882 </r>
       <r>     7.6262     2.2333     9.0276 </r>
       <r>     7.7333     2.3875     9.2835 </r>
       <r>     7.8405     2.8131     9.5850 </r>
       <r>     7.9477     3.1487     9.9225 </r>
       <r>     8.0549     2.5802    10.1990 </r>
       <r>     8.1621     1.6519    10.3761 </r>
       <r>     8.2693     0.9111    10.4738 </r>
       <r>     8.3765     0.3739    10.5138 </r>
       <r>     8.4836     0.1675    10.5318 </r>
       <r>     8.5908     0.1646    10.5494 </r>
       <r>     8.6980     0.1332    10.5637 </r>
       <r>     8.8052     0.0745    10.5717 </r>
       <r>     8.9124     0.1284    10.5855 </r>
       <r>     9.0196     0.3311    10.6210 </r>
       <r>     9.1268     0.4825    10.6727 </r>
       <r>     9.2339     0.4190    10.7176 </r>
       <r>     9.3411     0.3145    10.7513 </r>
       <r>     9.4483     0.2126    10.7741 </r>
       <r>     9.5555     0.0746    10.7821 </r>
       <r>     9.6627     0.0541    10.7879 </r>
       <r>     9.7699     0.1789    10.8071 </r>
       <r>     9.8771     0.3553    10.8451 </r>
       <r>     9.9842     0.5195    10.9008 </r>
       <r>    10.0914     0.5277    10.9574 </r>
       <r>    10.1986     0.3033    10.9899 </r>
       <r>    10.3058     0.1316    11.0040 </r>
       <r>    10.4130     0.1577    11.0209 </r>
       <r>    10.5202     0.2061    11.0430 </r>
       <r>    10.6274     0.2393    11.0686 </r>
       <r>    10.7345     0.2434    11.0947 </r>
       <r>    10.8417     0.2231    11.1186 </r>
       <r>    10.9489     0.2466    11.1451 </r>
       <r>    11.0561     0.2512    11.1720 </r>
       <r>    11.1633     0.2143    11.1949 </r>
       <r>    11.2705     0.2213    11.2187 </r>
       <r>    11.3777     0.3950    11.2610 </r>
       <r>    11.4848     0.6375    11.3293 </r>
       <r>    11.5920     0.5747    11.3909 </r>
       <r>    11.6992     0.2330    11.4159 </r>
       <r>    11.8064     0.0035    11.4163 </r>
       <r>    11.9136     0.0163    11.4180 </r>
       <r>    12.0208     0.1355    11.4326 </r>
       <r>    12.1280     0.1633    11.4501 </r>
       <r>    12.2351     0.1168    11.4626 </r>
       <r>    12.3423     0.2251    11.4867 </r>
       <r>    12.4495     0.4477    11.5347 </r>
       <r>    12.5567     0.5217    11.5906 </r>
       <r>    12.6639     0.3764    11.6309 </r>
       <r>    12.7711     0.1649    11.6486 </r>
       <r>    12.8783     0.0637    11.6555 </r>
       <r>    12.9854     0.0918    11.6653 </r>
       <r>    13.0926     0.1764    11.6842 </r>
       <r>    13.1998     0.2738    11.7135 </r>
       <r>    13.3070     0.3054    11.7463 </r>
       <r>    13.4142     0.2464    11.7727 </r>
       <r>    13.5214     0.1610    11.7900 </r>
       <r>    13.6286     0.1547    11.8065 </r>
       <r>    13.7357     0.1734    11.8251 </r>
       <r>    13.8429     0.1123    11.8372 </r>
       <r>    13.9501     0.0709    11.8448 </r>
       <r>    14.0573     0.0718    11.8524 </r>
       <r>    14.1645     0.1009    11.8633 </r>
       <r>    14.2717     0.2274    11.8876 </r>
       <r>    14.3789     0.3446    11.9246 </r>
       <r>    14.4860     0.3707    11.9643 </r>
       <r>    14.5932     0.3847    12.0055 </r>
       <r>    14.7004     0.3505    12.0431 </r>
       <r>    14.8076     0.3088    12.0762 </r>
       <r>    14.9148     0.3374    12.1124 </r>
       <r>    15.0220     0.3935    12.1545 </r>
       <r>    15.1292     0.3689    12.1941 </r>
       <r>    15.2363     0.2733    12.2234 </r>
       <r>    15.3435     0.2726    12.2526 </r>
       <r>    15.4507     0.2982    12.2845 </r>
       <r>    15.5579     0.3729    12.3245 </r>
       <r>    15.6651     0.5475    12.3832 </r>
       <r>    15.7723     0.5464    12.4418 </r>
       <r>    15.8795     0.2872    12.4725 </r>
       <r>    15.9866     0.0593    12.4789 </r>
       <r>    16.0938     0.0584    12.4852 </r>
       <r>    16.2010     0.1736    12.5038 </r>
       <r>    16.3082     0.2763    12.5334 </r>
       <r>    16.4154     0.4024    12.5765 </r>
       <r>    16.5226     0.4421    12.6239 </r>
       <r>    16.6298     0.2947    12.6555 </r>
       <r>    16.7369     0.2191    12.6790 </r>
       <r>    16.8441     0.3419    12.7156 </r>
       <r>    16.9513     0.4167    12.7603 </r>
       <r>    17.0585     0.3627    12.7992 </r>
       <r>    17.1657     0.2171    12.8224 </r>
       <r>    17.2729     0.0687    12.8298 </r>
       <r>    17.3801     0.0961    12.8401 </r>
       <r>    17.4872     0.2400    12.8658 </r>
       <r>    17.5944     0.3481    12.9031 </r>
       <r>    17.7016     0.4197    12.9481 </r>
       <r>    17.8088     0.4584    12.9973 </r>
       <r>    17.9160     0.4263    13.0430 </r>
       <r>    18.0232     0.4425    13.0904 </r>
       <r>    18.1304     0.6845    13.1638 </r>
       <r>    18.2375     0.8805    13.2581 </r>
       <r>    18.3447     0.6376    13.3265 </r>
       <r>    18.4519     0.2851    13.3570 </r>
       <r>    18.5591     0.2960    13.3888 </r>
       <r>    18.6663     0.4136    13.4331 </r>
       <r>    18.7735     0.3342    13.4689 </r>
       <r>    18.8807     0.2760    13.4985 </r>
       <r>    18.9878     0.4205    13.5436 </r>
       <r>    19.0950     0.5363    13.6011 </r>
       <r>    19.2022     0.5410    13.6590 </r>
       <r>    19.3094     0.5667    13.7198 </r>
       <r>    19.4166     0.5232    13.7759 </r>
       <r>    19.5238     0.3199    13.8102 </r>
       <r>    19.6310     0.1205    13.8231 </r>
       <r>    19.7381     0.1554    13.8397 </r>
       <r>    19.8453     0.4210    13.8848 </r>
       <r>    19.9525     0.8332    13.9741 </r>
       <r>    20.0597     1.0715    14.0890 </r>
       <r>    20.1669     0.7854    14.1732 </r>
       <r>    20.2741     0.3715    14.2130 </r>
       <r>    20.3813     0.2768    14.2427 </r>
       <r>    20.4884     0.3079    14.2757 </r>
       <r>    20.5956     0.3719    14.3155 </r>
       <r>    20.7028     0.5554    14.3751 </r>
       <r>    20.8100     0.7582    14.4563 </r>
       <r>    20.9172     0.8559    14.5481 </r>
       <r>    21.0244     0.7259    14.6259 </r>
       <r>    21.1316     0.5260    14.6823 </r>
       <r>    21.2387     0.4731    14.7330 </r>
       <r>    21.3459     0.4828    14.7847 </r>
       <r>    21.4531     0.5148    14.8399 </r>
       <r>    21.5603     0.5335    14.8971 </r>
       <r>    21.6675     0.4183    14.9419 </r>
       <r>    21.7747     0.2822    14.9722 </r>
       <r>    21.8819     0.2463    14.9986 </r>
       <r>    21.9890     0.2851    15.0291 </r>
       <r>    22.0962     0.4918    15.0818 </r>
       <r>    22.2034     0.7748    15.1649 </r>
       <r>    22.3106     0.8027    15.2509 </r>
       <r>    22.4178     0.6568    15.3213 </r>
       <r>    22.5250     0.6689    15.3930 </r>
       <r>    22.6322     0.7062    15.4687 </r>
       <r>    22.7393     0.5982    15.5328 </r>
       <r>    22.8465     0.5215    15.5887 </r>
       <r>    22.9537     0.4631    15.6384 </r>
       <r>    23.0609     0.3922    15.6804 </r>
       <r>    23.1681     0.3717    15.7202 </r>
       <r>    23.2753     0.4805    15.7717 </r>
       <r>    23.3825     0.7367    15.8507 </r>
       <r>    23.4896     0.8547    15.9423 </r>
       <r>    23.5968     0.6550    16.0125 </r>
       <r>    23.7040     0.3041    16.0451 </r>
       <r>    23.8112     0.1027    16.0561 </r>
       <r>    23.9184     0.2229    16.0800 </r>
       <r>    24.0256     0.5188    16.1356 </r>
       <r>    24.1328     0.7247    16.2133 </r>
       <r>    24.2399     0.7322    16.2918 </r>
       <r>    24.3471     0.6728    16.3639 </r>
       <r>    24.4543     0.6256    16.4310 </r>
       <r>    24.5615     0.5392    16.4888 </r>
       <r>    24.6687     0.5854    16.5515 </r>
       <r>    24.7759     0.6884    16.6253 </r>
       <r>    24.8831     0.6892    16.6991 </r>
       <r>    24.9902     0.6704    16.7710 </r>
       <r>    25.0974     0.5584    16.8309 </r>
       <r>    25.2046     0.4966    16.8841 </r>
       <r>    25.3118     0.6078    16.9492 </r>
       <r>    25.4190     0.6122    17.0148 </r>
       <r>    25.5262     0.4883    17.0672 </r>
       <r>    25.6334     0.4255    17.1128 </r>
       <r>    25.7405     0.4199    17.1578 </r>
       <r>    25.8477     0.3749    17.1980 </r>
       <r>    25.9549     0.3352    17.2339 </r>
       <r>    26.0621     0.4467    17.2818 </r>
       <r>    26.1693     0.6413    17.3505 </r>
       <r>    26.2765     0.5977    17.4146 </r>
       <r>    26.3837     0.2765    17.4442 </r>
       <r>    26.4908     0.0619    17.4509 </r>
       <r>    26.5980     0.1274    17.4645 </r>
       <r>    26.7052     0.2373    17.4900 </r>
       <r>    26.8124     0.1679    17.5079 </r>
       <r>    26.9196     0.0891    17.5175 </r>
       <r>    27.0268     0.2720    17.5467 </r>
       <r>    27.1339     0.5248    17.6029 </r>
       <r>    27.2411     0.5303    17.6598 </r>
       <r>    27.3483     0.4229    17.7051 </r>
       <r>    27.4555     0.3209    17.7395 </r>
       <r>    27.5627     0.1991    17.7608 </r>
       <r>    27.6699     0.1472    17.7766 </r>
       <r>    27.7771     0.1254    17.7900 </r>
       <r>    27.8842     0.0559    17.7960 </r>
       <r>    27.9914     0.0013    17.7962 </r>
       <r>    28.0986     0.0485    17.8014 </r>
       <r>    28.2058     0.1818    17.8209 </r>
       <r>    28.3130     0.2584    17.8486 </r>
       <r>    28.4202     0.2374    17.8740 </r>
       <r>    28.5274     0.2303    17.8987 </r>
       <r>    28.6345     0.2505    17.9255 </r>
       <r>    28.7417     0.2482    17.9521 </r>
       <r>    28.8489     0.1774    17.9712 </r>
       <r>    28.9561     0.0619    17.9778 </r>
       <r>    29.0633    -0.0024    17.9775 </r>
       <r>    29.1705     0.0020    17.9777 </r>
       <r>    29.2777     0.0249    17.9804 </r>
       <r>    29.3848     0.0306    17.9837 </r>
       <r>    29.4920     0.0295    17.9869 </r>
       <r>    29.5992     0.0301    17.9901 </r>
       <r>    29.7064     0.0169    17.9919 </r>
       <r>    29.8136     0.0077    17.9927 </r>
       <r>    29.9208     0.0213    17.9950 </r>
       <r>    30.0280     0.0307    17.9983 </r>
       <r>    30.1351     0.0167    18.0001 </r>
       <r>    30.2423     0.0015    18.0002 </r>
       <r>    30.3495    -0.0016    18.0001 </r>
       <r>    30.4567    -0.0006    18.0000 </r>
       <r>    30.5639    -0.0001    18.0000 </r>
       <r>    30.6711     0.0000    18.0000 </r>
       <r>    30.7783     0.0000    18.0000 </r>
       <r>    30.8854     0.0000    18.0000 </r>
       <r>    30.9926     0.0000    18.0000 </r>
       <r>    31.0998     0.0000    18.0000 </r>
       <r>    31.2070     0.0000    18.0000 </r>
       <r>    31.3142     0.0000    18.0000 </r>
       <r>    31.4214     0.0000    18.0000 </r>
       <r>    31.5286     0.0000    18.0000 </r>
       <r>    31.6357     0.0000    18.0000 </r>
       <r>    31.7429     0.0000    18.0000 </r>
       <r>    31.8501     0.0000    18.0000 </r>
       <r>    31.9573     0.0000    18.0000 </r>
      </set>
     </set>
    </array>
   </total>
  </dos>
 </calculation>
 <structure name="finalpos" >
  <crystal>
   <varray name="basis" >
    <v>       2.86067119       0.00000000       0.00000000 </v>
    <v>       1.43033560       2.47741393       0.00000000 </v>
    <v>       1.43033560       0.82580464       2.33572825 </v>
   </varray>
   <i name="volume">     16.55346178 </i>
   <varray name="rec_basis" >
    <v>       0.34956831      -0.20182336      -0.14271067 </v>
    <v>       0.00000000       0.40364672      -0.14271067 </v>
    <v>       0.00000000       0.00000000       0.42813200 </v>
   </varray>
  </crystal>
  <varray name="positions" >
   <v>       0.00000000       0.00000000       0.00000000 </v>
  </varray>
 </structure>
</modeling>
