 vasp.5.3.5 31Mar14 (build Jan 09 2015 16:57:47) complex                        
  
 POSCAR found :  1 types and       1 ions
 LDA part: xc-table for Pade appr. of Perdew
 POSCAR found :  1 types and       1 ions
 POSCAR, INCAR and KPOINTS ok, starting setup
 WARNING: small aliasing (wrap around) errors must be expected
 FFT: planning ...
 WAVECAR not read
 entering main loop
       N       E                     dE             d eps       ncg     rms          rms(c)
DAV:   1     0.274676935109E+02    0.27468E+02   -0.41519E+03  1128   0.735E+02
DAV:   2    -0.512295255594E+01   -0.32591E+02   -0.31366E+02  1141   0.157E+02
DAV:   3    -0.541284749940E+01   -0.28989E+00   -0.28758E+00  1273   0.166E+01
DAV:   4    -0.541429542306E+01   -0.14479E-02   -0.14478E-02  1233   0.111E+00
DAV:   5    -0.541431640125E+01   -0.20978E-04   -0.20977E-04  1254   0.115E-01    0.559E+00
DAV:   6    -0.518024872976E+01    0.23407E+00   -0.13387E+00  1102   0.104E+01    0.274E+00
DAV:   7    -0.517542277921E+01    0.48260E-02   -0.20769E-03  1147   0.519E-01    0.156E+00
DAV:   8    -0.517313068933E+01    0.22921E-02   -0.78869E-04  1133   0.204E-01    0.163E-02
DAV:   9    -0.517313871256E+01   -0.80232E-05   -0.59610E-06   569   0.226E-02
   1 F= -.51731387E+01 E0= -.51709142E+01  d E =-.517314E+01
 curvature:   0.00 expect dE= 0.000E+00 dE for cont linesearch  0.000E+00
 trial: gam= 0.00000 g(F)=  0.422E-62 g(S)=  0.000E+00 ort = 0.000E+00 (trialstep = 0.100E+01)
 search vector abs. value=  0.100E-09
 reached required accuracy - stopping structural energy minimisation
 writing wavefunctions
