unknown system                          
           1
     2.860671    0.000000    0.000000
     1.430336    2.477414    0.000000
     1.430336    0.825805    2.335728
   Pd
   1
Direct configuration=     1
   0.00000000  0.00000000  0.00000000
