unknown system                          
   1.00000000000000     
     6.000000    0.000000    0.000000
     0.000000    6.000000    0.000000
     0.000000    0.000000    6.000000
   C    H 
     1     4
Direct
  0.500000  0.500000  0.500000
  0.604853  0.604853  0.604853
  0.395147  0.395147  0.604853
  0.604853  0.395147  0.395147
  0.395147  0.604853  0.395147
 
   60   60   60
 0.43095E-04 0.30954E-04 0.20145E-04 0.49091E-04 0.10921E-03 0.15152E-03 0.15485E-03 0.16267E-03 0.23422E-03 0.36811E-03
 0.49250E-03 0.53303E-03 0.48145E-03 0.39881E-03 0.36323E-03 0.41439E-03 0.52856E-03 0.63103E-03 0.64275E-03 0.54062E-03
 0.38334E-03 0.26761E-03 0.24650E-03 0.28966E-03 0.32385E-03 0.30476E-03 0.24451E-03 0.18115E-03 0.13872E-03 0.11842E-03
 0.11284E-03 0.11842E-03 0.13872E-03 0.18115E-03 0.24451E-03 0.30476E-03 0.32385E-03 0.28966E-03 0.24650E-03 0.26761E-03
 0.38334E-03 0.54062E-03 0.64275E-03 0.63103E-03 0.52856E-03 0.41439E-03 0.36323E-03 0.39881E-03 0.48145E-03 0.53303E-03
 0.49250E-03 0.36811E-03 0.23422E-03 0.16267E-03 0.15485E-03 0.15152E-03 0.10921E-03 0.49091E-04 0.20145E-04 0.30954E-04
 0.30954E-04 0.27056E-04 0.30110E-04 0.60835E-04 0.10968E-03 0.14300E-03 0.14924E-03 0.16355E-03 0.23216E-03 0.35473E-03
 0.47445E-03 0.52913E-03 0.50686E-03 0.45225E-03 0.42774E-03 0.46973E-03 0.56534E-03 0.65589E-03 0.67179E-03 0.58833E-03
 0.45680E-03 0.36708E-03 0.36658E-03 0.41926E-03 0.44986E-03 0.42032E-03 0.35376E-03 0.29418E-03 0.26214E-03 0.25128E-03
 0.24927E-03 0.25128E-03 0.26214E-03 0.29418E-03 0.35376E-03 0.42032E-03 0.44986E-03 0.41926E-03 0.36658E-03 0.36708E-03
 0.45680E-03 0.58833E-03 0.67179E-03 0.65589E-03 0.56534E-03 0.46973E-03 0.42774E-03 0.45225E-03 0.50686E-03 0.52913E-03
 0.47445E-03 0.35473E-03 0.23216E-03 0.16355E-03 0.14924E-03 0.14300E-03 0.10968E-03 0.60835E-04 0.30110E-04 0.27056E-04
 0.20145E-04 0.30110E-04 0.56394E-04 0.90664E-04 0.12349E-03 0.14688E-03 0.16097E-03 0.18186E-03 0.23432E-03 0.32666E-03
 0.43535E-03 0.52216E-03 0.56695E-03 0.58030E-03 0.58958E-03 0.61930E-03 0.67660E-03 0.74064E-03 0.76945E-03 0.73803E-03
 0.67625E-03 0.65003E-03 0.69016E-03 0.75257E-03 0.76607E-03 0.71122E-03 0.63374E-03 0.58592E-03 0.57761E-03 0.58638E-03
 0.59146E-03 0.58638E-03 0.57761E-03 0.58592E-03 0.63374E-03 0.71122E-03 0.76607E-03 0.75257E-03 0.69016E-03 0.65003E-03
 0.67625E-03 0.73803E-03 0.76945E-03 0.74064E-03 0.67660E-03 0.61930E-03 0.58958E-03 0.58030E-03 0.56695E-03 0.52216E-03
 0.43535E-03 0.32666E-03 0.23432E-03 0.18186E-03 0.16097E-03 0.14688E-03 0.12349E-03 0.90664E-04 0.56394E-04 0.30110E-04
 0.49091E-04 0.60835E-04 0.90664E-04 0.12991E-03 0.17403E-03 0.21549E-03 0.24071E-03 0.24782E-03 0.26115E-03 0.31249E-03
 0.40808E-03 0.52481E-03 0.63566E-03 0.72640E-03 0.79158E-03 0.83306E-03 0.86580E-03 0.90752E-03 0.95619E-03 0.99400E-03
 0.10201E-02 0.10585E-02 0.11164E-02 0.11554E-02 0.11300E-02 0.10488E-02 0.97164E-03 0.94403E-03 0.95808E-03 0.97974E-03
 0.98831E-03 0.97974E-03 0.95808E-03 0.94403E-03 0.97164E-03 0.10488E-02 0.11300E-02 0.11554E-02 0.11164E-02 0.10585E-02
 0.10201E-02 0.99400E-03 0.95619E-03 0.90752E-03 0.86580E-03 0.83306E-03 0.79158E-03 0.72640E-03 0.63566E-03 0.52481E-03
 0.40808E-03 0.31249E-03 0.26115E-03 0.24782E-03 0.24071E-03 0.21549E-03 0.17403E-03 0.12991E-03 0.90664E-04 0.60835E-04
 0.10921E-03 0.10968E-03 0.12349E-03 0.17403E-03 0.26355E-03 0.35447E-03 0.39495E-03 0.37272E-03 0.33487E-03 0.34456E-03
 0.42581E-03 0.55974E-03 0.71864E-03 0.88021E-03 0.10159E-02 0.10988E-02 0.11360E-02 0.11711E-02 0.12403E-02 0.13372E-02
 0.14301E-02 0.14966E-02 0.15244E-02 0.14987E-02 0.14190E-02 0.13235E-02 0.12667E-02 0.12664E-02 0.12923E-02 0.13104E-02
 0.13149E-02 0.13104E-02 0.12923E-02 0.12664E-02 0.12667E-02 0.13235E-02 0.14190E-02 0.14987E-02 0.15244E-02 0.14966E-02
 0.14301E-02 0.13372E-02 0.12403E-02 0.11711E-02 0.11360E-02 0.10988E-02 0.10159E-02 0.88021E-03 0.71864E-03 0.55974E-03
 0.42581E-03 0.34456E-03 0.33487E-03 0.37272E-03 0.39495E-03 0.35447E-03 0.26355E-03 0.17403E-03 0.12349E-03 0.10968E-03
 0.15152E-03 0.14300E-03 0.14688E-03 0.21549E-03 0.35447E-03 0.49788E-03 0.56338E-03 0.53275E-03 0.46872E-03 0.45281E-03
 0.52171E-03 0.66663E-03 0.86652E-03 0.10932E-02 0.12969E-02 0.14272E-02 0.14840E-02 0.15265E-02 0.16131E-02 0.17407E-02
 0.18548E-02 0.19021E-02 0.18648E-02 0.17605E-02 0.16348E-02 0.15462E-02 0.15279E-02 0.15575E-02 0.15827E-02 0.15808E-02
 0.15740E-02 0.15808E-02 0.15827E-02 0.15575E-02 0.15279E-02 0.15462E-02 0.16348E-02 0.17605E-02 0.18648E-02 0.19021E-02
 0.18548E-02 0.17407E-02 0.16131E-02 0.15265E-02 0.14840E-02 0.14272E-02 0.12969E-02 0.10932E-02 0.86652E-03 0.66663E-03
 0.52171E-03 0.45281E-03 0.46872E-03 0.53275E-03 0.56338E-03 0.49788E-03 0.35447E-03 0.21549E-03 0.14688E-03 0.14300E-03
 0.15485E-03 0.14924E-03 0.16097E-03 0.24071E-03 0.39495E-03 0.56338E-03 0.66841E-03 0.68494E-03 0.65748E-03 0.65625E-03
 0.72969E-03 0.89420E-03 0.11402E-02 0.14252E-02 0.16762E-02 0.18339E-02 0.19074E-02 0.19679E-02 0.20762E-02 0.22203E-02
 0.23303E-02 0.23425E-02 0.22479E-02 0.20950E-02 0.19624E-02 0.19134E-02 0.19492E-02 0.20050E-02 0.20132E-02 0.19745E-02
 0.19494E-02 0.19745E-02 0.20132E-02 0.20050E-02 0.19492E-02 0.19134E-02 0.19624E-02 0.20950E-02 0.22479E-02 0.23425E-02
 0.23303E-02 0.22203E-02 0.20762E-02 0.19679E-02 0.19074E-02 0.18339E-02 0.16762E-02 0.14252E-02 0.11402E-02 0.89420E-03
 0.72969E-03 0.65625E-03 0.65748E-03 0.68494E-03 0.66841E-03 0.56338E-03 0.39495E-03 0.24071E-03 0.16097E-03 0.14924E-03
 0.16267E-03 0.16355E-03 0.18186E-03 0.24782E-03 0.37272E-03 0.53275E-03 0.68494E-03 0.79843E-03 0.87445E-03 0.94553E-03
 0.10613E-02 0.12639E-02 0.15562E-02 0.18829E-02 0.21576E-02 0.23279E-02 0.24217E-02 0.25196E-02 0.26752E-02 0.28627E-02
 0.30006E-02 0.30222E-02 0.29296E-02 0.27972E-02 0.27243E-02 0.27631E-02 0.28719E-02 0.29453E-02 0.29136E-02 0.28170E-02
 0.27652E-02 0.28170E-02 0.29136E-02 0.29453E-02 0.28719E-02 0.27631E-02 0.27243E-02 0.27972E-02 0.29296E-02 0.30222E-02
 0.30006E-02 0.28627E-02 0.26752E-02 0.25196E-02 0.24217E-02 0.23279E-02 0.21576E-02 0.18829E-02 0.15562E-02 0.12639E-02
 0.10613E-02 0.94553E-03 0.87445E-03 0.79843E-03 0.68494E-03 0.53275E-03 0.37272E-03 0.24782E-03 0.18186E-03 0.16355E-03
 0.23422E-03 0.23216E-03 0.23432E-03 0.26115E-03 0.33487E-03 0.46872E-03 0.65748E-03 0.87445E-03 0.10852E-02 0.12773E-02
 0.14783E-02 0.17346E-02 0.20602E-02 0.24080E-02 0.27020E-02 0.29052E-02 0.30555E-02 0.32320E-02 0.34822E-02 0.37753E-02
 0.40221E-02 0.41457E-02 0.41492E-02 0.41244E-02 0.41832E-02 0.43574E-02 0.45567E-02 0.46404E-02 0.45510E-02 0.43819E-02
 0.42984E-02 0.43819E-02 0.45510E-02 0.46404E-02 0.45567E-02 0.43574E-02 0.41832E-02 0.41244E-02 0.41492E-02 0.41457E-02
 0.40221E-02 0.37753E-02 0.34822E-02 0.32320E-02 0.30555E-02 0.29052E-02 0.27020E-02 0.24080E-02 0.20602E-02 0.17346E-02
 0.14783E-02 0.12773E-02 0.10852E-02 0.87445E-03 0.65748E-03 0.46872E-03 0.33487E-03 0.26115E-03 0.23432E-03 0.23216E-03
 0.36811E-03 0.35473E-03 0.32666E-03 0.31249E-03 0.34456E-03 0.45281E-03 0.65625E-03 0.94553E-03 0.12773E-02 0.16023E-02
 0.19065E-02 0.22158E-02 0.25564E-02 0.29157E-02 0.32521E-02 0.35422E-02 0.38124E-02 0.41238E-02 0.45202E-02 0.49792E-02
 0.54117E-02 0.57252E-02 0.59083E-02 0.60541E-02 0.62781E-02 0.65943E-02 0.68784E-02 0.69720E-02 0.68380E-02 0.66148E-02
 0.65081E-02 0.66148E-02 0.68380E-02 0.69720E-02 0.68784E-02 0.65943E-02 0.62781E-02 0.60541E-02 0.59083E-02 0.57252E-02
 0.54117E-02 0.49792E-02 0.45202E-02 0.41238E-02 0.38124E-02 0.35422E-02 0.32521E-02 0.29157E-02 0.25564E-02 0.22158E-02
 0.19065E-02 0.16023E-02 0.12773E-02 0.94553E-03 0.65625E-03 0.45281E-03 0.34456E-03 0.31249E-03 0.32666E-03 0.35473E-03
 0.49250E-03 0.47445E-03 0.43535E-03 0.40808E-03 0.42581E-03 0.52171E-03 0.72969E-03 0.10613E-02 0.14783E-02 0.19065E-02
 0.22902E-02 0.26319E-02 0.29751E-02 0.33549E-02 0.37707E-02 0.42026E-02 0.46476E-02 0.51355E-02 0.57033E-02 0.63431E-02
 0.69763E-02 0.75001E-02 0.78793E-02 0.81872E-02 0.85302E-02 0.89226E-02 0.92472E-02 0.93595E-02 0.92369E-02 0.90236E-02
 0.89214E-02 0.90236E-02 0.92369E-02 0.93595E-02 0.92472E-02 0.89226E-02 0.85302E-02 0.81872E-02 0.78793E-02 0.75001E-02
 0.69763E-02 0.63431E-02 0.57033E-02 0.51355E-02 0.46476E-02 0.42026E-02 0.37707E-02 0.33549E-02 0.29751E-02 0.26319E-02
 0.22902E-02 0.19065E-02 0.14783E-02 0.10613E-02 0.72969E-03 0.52171E-03 0.42581E-03 0.40808E-03 0.43535E-03 0.47445E-03
 0.53303E-03 0.52913E-03 0.52216E-03 0.52481E-03 0.55974E-03 0.66663E-03 0.89420E-03 0.12639E-02 0.17346E-02 0.22158E-02
 0.26319E-02 0.29805E-02 0.33287E-02 0.37527E-02 0.42792E-02 0.48789E-02 0.55109E-02 0.61690E-02 0.68786E-02 0.76450E-02
 0.84088E-02 0.90708E-02 0.95736E-02 0.99542E-02 0.10301E-01 0.10652E-01 0.10948E-01 0.11089E-01 0.11054E-01 0.10935E-01
 0.10874E-01 0.10935E-01 0.11054E-01 0.11089E-01 0.10948E-01 0.10652E-01 0.10301E-01 0.99542E-02 0.95736E-02 0.90708E-02
 0.84088E-02 0.76450E-02 0.68786E-02 0.61690E-02 0.55109E-02 0.48789E-02 0.42792E-02 0.37527E-02 0.33287E-02 0.29805E-02
 0.26319E-02 0.22158E-02 0.17346E-02 0.12639E-02 0.89420E-03 0.66663E-03 0.55974E-03 0.52481E-03 0.52216E-03 0.52913E-03
 0.48145E-03 0.50686E-03 0.56695E-03 0.63566E-03 0.71864E-03 0.86652E-03 0.11402E-02 0.15562E-02 0.20602E-02 0.25564E-02
 0.29751E-02 0.33287E-02 0.37067E-02 0.42084E-02 0.48663E-02 0.56291E-02 0.64162E-02 0.71866E-02 0.79537E-02 0.87365E-02
 0.95048E-02 0.10179E-01 0.10689E-01 0.11030E-01 0.11266E-01 0.11474E-01 0.11678E-01 0.11848E-01 0.11946E-01 0.11979E-01
 0.11982E-01 0.11979E-01 0.11946E-01 0.11848E-01 0.11678E-01 0.11474E-01 0.11266E-01 0.11030E-01 0.10689E-01 0.10179E-01
 0.95048E-02 0.87365E-02 0.79537E-02 0.71866E-02 0.64162E-02 0.56291E-02 0.48663E-02 0.42084E-02 0.37067E-02 0.33287E-02
 0.29751E-02 0.25564E-02 0.20602E-02 0.15562E-02 0.11402E-02 0.86652E-03 0.71864E-03 0.63566E-03 0.56695E-03 0.50686E-03
 0.39881E-03 0.45225E-03 0.58030E-03 0.72640E-03 0.88021E-03 0.10932E-02 0.14252E-02 0.18829E-02 0.24080E-02 0.29157E-02
 0.33549E-02 0.37527E-02 0.42084E-02 0.48262E-02 0.56314E-02 0.65449E-02 0.74451E-02 0.82572E-02 0.89857E-02 0.96731E-02
 0.10334E-01 0.10925E-01 0.11371E-01 0.11622E-01 0.11711E-01 0.11740E-01 0.11819E-01 0.11990E-01 0.12206E-01 0.12382E-01
 0.12449E-01 0.12382E-01 0.12206E-01 0.11990E-01 0.11819E-01 0.11740E-01 0.11711E-01 0.11622E-01 0.11371E-01 0.10925E-01
 0.10334E-01 0.96731E-02 0.89857E-02 0.82572E-02 0.74451E-02 0.65449E-02 0.56314E-02 0.48262E-02 0.42084E-02 0.37527E-02
 0.33549E-02 0.29157E-02 0.24080E-02 0.18829E-02 0.14252E-02 0.10932E-02 0.88021E-03 0.72640E-03 0.58030E-03 0.45225E-03
 0.36323E-03 0.42774E-03 0.58958E-03 0.79158E-03 0.10159E-02 0.12969E-02 0.16762E-02 0.21576E-02 0.27020E-02 0.32521E-02
 0.37707E-02 0.42792E-02 0.48663E-02 0.56314E-02 0.65945E-02 0.76555E-02 0.86547E-02 0.94801E-02 0.10128E-01 0.10676E-01
 0.11203E-01 0.11714E-01 0.12133E-01 0.12354E-01 0.12353E-01 0.12235E-01 0.12177E-01 0.12292E-01 0.12552E-01 0.12812E-01
 0.12920E-01 0.12812E-01 0.12552E-01 0.12292E-01 0.12177E-01 0.12235E-01 0.12353E-01 0.12354E-01 0.12133E-01 0.11714E-01
 0.11203E-01 0.10676E-01 0.10128E-01 0.94801E-02 0.86547E-02 0.76555E-02 0.65945E-02 0.56314E-02 0.48663E-02 0.42792E-02
 0.37707E-02 0.32521E-02 0.27020E-02 0.21576E-02 0.16762E-02 0.12969E-02 0.10159E-02 0.79158E-03 0.58958E-03 0.42774E-03
 0.41439E-03 0.46973E-03 0.61930E-03 0.83306E-03 0.10988E-02 0.14272E-02 0.18339E-02 0.23279E-02 0.29052E-02 0.35422E-02
 0.42026E-02 0.48789E-02 0.56291E-02 0.65449E-02 0.76555E-02 0.88619E-02 0.99787E-02 0.10854E-01 0.11468E-01 0.11931E-01
 0.12394E-01 0.12924E-01 0.13438E-01 0.13762E-01 0.13786E-01 0.13585E-01 0.13384E-01 0.13380E-01 0.13593E-01 0.13861E-01
 0.13980E-01 0.13861E-01 0.13593E-01 0.13380E-01 0.13384E-01 0.13585E-01 0.13786E-01 0.13762E-01 0.13438E-01 0.12924E-01
 0.12394E-01 0.11931E-01 0.11468E-01 0.10854E-01 0.99787E-02 0.88619E-02 0.76555E-02 0.65449E-02 0.56291E-02 0.48789E-02
 0.42026E-02 0.35422E-02 0.29052E-02 0.23279E-02 0.18339E-02 0.14272E-02 0.10988E-02 0.83306E-03 0.61930E-03 0.46973E-03
 0.52856E-03 0.56534E-03 0.67660E-03 0.86580E-03 0.11360E-02 0.14840E-02 0.19074E-02 0.24217E-02 0.30555E-02 0.38124E-02
 0.46476E-02 0.55109E-02 0.64162E-02 0.74451E-02 0.86547E-02 0.99787E-02 0.11232E-01 0.12225E-01 0.12902E-01 0.13382E-01
 0.13881E-01 0.14529E-01 0.15248E-01 0.15787E-01 0.15936E-01 0.15719E-01 0.15394E-01 0.15244E-01 0.15359E-01 0.15588E-01
 0.15700E-01 0.15588E-01 0.15359E-01 0.15244E-01 0.15394E-01 0.15719E-01 0.15936E-01 0.15787E-01 0.15248E-01 0.14529E-01
 0.13881E-01 0.13382E-01 0.12902E-01 0.12225E-01 0.11232E-01 0.99787E-02 0.86547E-02 0.74451E-02 0.64162E-02 0.55109E-02
 0.46476E-02 0.38124E-02 0.30555E-02 0.24217E-02 0.19074E-02 0.14840E-02 0.11360E-02 0.86580E-03 0.67660E-03 0.56534E-03
 0.63103E-03 0.65589E-03 0.74064E-03 0.90752E-03 0.11711E-02 0.15265E-02 0.19679E-02 0.25196E-02 0.32320E-02 0.41238E-02
 0.51355E-02 0.61690E-02 0.71866E-02 0.82572E-02 0.94801E-02 0.10854E-01 0.12225E-01 0.13372E-01 0.14173E-01 0.14723E-01
 0.15271E-01 0.16014E-01 0.16903E-01 0.17645E-01 0.17947E-01 0.17774E-01 0.17394E-01 0.17158E-01 0.17212E-01 0.17421E-01
 0.17531E-01 0.17421E-01 0.17212E-01 0.17158E-01 0.17394E-01 0.17774E-01 0.17947E-01 0.17645E-01 0.16903E-01 0.16014E-01
 0.15271E-01 0.14723E-01 0.14173E-01 0.13372E-01 0.12225E-01 0.10854E-01 0.94801E-02 0.82572E-02 0.71866E-02 0.61690E-02
 0.51355E-02 0.41238E-02 0.32320E-02 0.25196E-02 0.19679E-02 0.15265E-02 0.11711E-02 0.90752E-03 0.74064E-03 0.65589E-03
 0.64275E-03 0.67179E-03 0.76945E-03 0.95619E-03 0.12403E-02 0.16131E-02 0.20762E-02 0.26752E-02 0.34822E-02 0.45202E-02
 0.57033E-02 0.68786E-02 0.79537E-02 0.89857E-02 0.10128E-01 0.11468E-01 0.12902E-01 0.14173E-01 0.15072E-01 0.15618E-01
 0.16063E-01 0.16678E-01 0.17490E-01 0.18242E-01 0.18613E-01 0.18527E-01 0.18230E-01 0.18078E-01 0.18225E-01 0.18516E-01
 0.18660E-01 0.18516E-01 0.18225E-01 0.18078E-01 0.18230E-01 0.18527E-01 0.18613E-01 0.18242E-01 0.17490E-01 0.16678E-01
 0.16063E-01 0.15618E-01 0.15072E-01 0.14173E-01 0.12902E-01 0.11468E-01 0.10128E-01 0.89857E-02 0.79537E-02 0.68786E-02
 0.57033E-02 0.45202E-02 0.34822E-02 0.26752E-02 0.20762E-02 0.16131E-02 0.12403E-02 0.95619E-03 0.76945E-03 0.67179E-03
 0.54062E-03 0.58833E-03 0.73803E-03 0.99400E-03 0.13372E-02 0.17407E-02 0.22203E-02 0.28627E-02 0.37753E-02 0.49792E-02
 0.63431E-02 0.76450E-02 0.87365E-02 0.96731E-02 0.10676E-01 0.11931E-01 0.13382E-01 0.14723E-01 0.15618E-01 0.15973E-01
 0.16021E-01 0.16117E-01 0.16437E-01 0.16857E-01 0.17128E-01 0.17163E-01 0.17145E-01 0.17347E-01 0.17840E-01 0.18388E-01
 0.18627E-01 0.18388E-01 0.17840E-01 0.17347E-01 0.17145E-01 0.17163E-01 0.17128E-01 0.16857E-01 0.16437E-01 0.16117E-01
 0.16021E-01 0.15973E-01 0.15618E-01 0.14723E-01 0.13382E-01 0.11931E-01 0.10676E-01 0.96731E-02 0.87365E-02 0.76450E-02
 0.63431E-02 0.49792E-02 0.37753E-02 0.28627E-02 0.22203E-02 0.17407E-02 0.13372E-02 0.99400E-03 0.73803E-03 0.58833E-03
 0.38334E-03 0.45680E-03 0.67625E-03 0.10201E-02 0.14301E-02 0.18548E-02 0.23303E-02 0.30006E-02 0.40221E-02 0.54117E-02
 0.69763E-02 0.84088E-02 0.95048E-02 0.10334E-01 0.11203E-01 0.12394E-01 0.13881E-01 0.15271E-01 0.16063E-01 0.16021E-01
 0.15344E-01 0.14505E-01 0.13904E-01 0.13662E-01 0.13687E-01 0.13909E-01 0.14400E-01 0.15258E-01 0.16375E-01 0.17365E-01
 0.17765E-01 0.17365E-01 0.16375E-01 0.15258E-01 0.14400E-01 0.13909E-01 0.13687E-01 0.13662E-01 0.13904E-01 0.14505E-01
 0.15344E-01 0.16021E-01 0.16063E-01 0.15271E-01 0.13881E-01 0.12394E-01 0.11203E-01 0.10334E-01 0.95048E-02 0.84088E-02
 0.69763E-02 0.54117E-02 0.40221E-02 0.30006E-02 0.23303E-02 0.18548E-02 0.14301E-02 0.10201E-02 0.67625E-03 0.45680E-03
 0.26761E-03 0.36708E-03 0.65003E-03 0.10585E-02 0.14966E-02 0.19021E-02 0.23425E-02 0.30222E-02 0.41457E-02 0.57252E-02
 0.75001E-02 0.90708E-02 0.10179E-01 0.10925E-01 0.11714E-01 0.12924E-01 0.14529E-01 0.16014E-01 0.16678E-01 0.16117E-01
 0.14505E-01 0.12472E-01 0.10721E-01 0.96898E-02 0.94901E-02 0.10054E-01 0.11281E-01 0.13015E-01 0.14915E-01 0.16433E-01
 0.17017E-01 0.16433E-01 0.14915E-01 0.13015E-01 0.11281E-01 0.10054E-01 0.94901E-02 0.96898E-02 0.10721E-01 0.12472E-01
 0.14505E-01 0.16117E-01 0.16678E-01 0.16014E-01 0.14529E-01 0.12924E-01 0.11714E-01 0.10925E-01 0.10179E-01 0.90708E-02
 0.75001E-02 0.57252E-02 0.41457E-02 0.30222E-02 0.23425E-02 0.19021E-02 0.14966E-02 0.10585E-02 0.65003E-03 0.36708E-03
 0.24650E-03 0.36658E-03 0.69016E-03 0.11164E-02 0.15244E-02 0.18648E-02 0.22479E-02 0.29296E-02 0.41492E-02 0.59083E-02
 0.78793E-02 0.95736E-02 0.10689E-01 0.11371E-01 0.12133E-01 0.13438E-01 0.15248E-01 0.16903E-01 0.17490E-01 0.16437E-01
 0.13904E-01 0.10721E-01 0.79312E-02 0.63078E-02 0.61262E-02 0.72491E-02 0.93262E-02 0.11908E-01 0.14449E-01 0.16332E-01
 0.17030E-01 0.16332E-01 0.14449E-01 0.11908E-01 0.93262E-02 0.72491E-02 0.61262E-02 0.63078E-02 0.79312E-02 0.10721E-01
 0.13904E-01 0.16437E-01 0.17490E-01 0.16903E-01 0.15248E-01 0.13438E-01 0.12133E-01 0.11371E-01 0.10689E-01 0.95736E-02
 0.78793E-02 0.59083E-02 0.41492E-02 0.29296E-02 0.22479E-02 0.18648E-02 0.15244E-02 0.11164E-02 0.69016E-03 0.36658E-03
 0.28966E-03 0.41926E-03 0.75257E-03 0.11554E-02 0.14987E-02 0.17605E-02 0.20950E-02 0.27972E-02 0.41244E-02 0.60541E-02
 0.81872E-02 0.99542E-02 0.11030E-01 0.11622E-01 0.12354E-01 0.13762E-01 0.15787E-01 0.17645E-01 0.18242E-01 0.16857E-01
 0.13662E-01 0.96898E-02 0.63078E-02 0.45494E-02 0.47376E-02 0.65379E-02 0.92689E-02 0.12207E-01 0.14747E-01 0.16449E-01
 0.17047E-01 0.16449E-01 0.14747E-01 0.12207E-01 0.92689E-02 0.65379E-02 0.47376E-02 0.45494E-02 0.63078E-02 0.96898E-02
 0.13662E-01 0.16857E-01 0.18242E-01 0.17645E-01 0.15787E-01 0.13762E-01 0.12354E-01 0.11622E-01 0.11030E-01 0.99542E-02
 0.81872E-02 0.60541E-02 0.41244E-02 0.27972E-02 0.20950E-02 0.17605E-02 0.14987E-02 0.11554E-02 0.75257E-03 0.41926E-03
 0.32385E-03 0.44986E-03 0.76607E-03 0.11300E-02 0.14190E-02 0.16348E-02 0.19624E-02 0.27243E-02 0.41832E-02 0.62781E-02
 0.85302E-02 0.10301E-01 0.11266E-01 0.11711E-01 0.12353E-01 0.13786E-01 0.15936E-01 0.17947E-01 0.18613E-01 0.17128E-01
 0.13687E-01 0.94901E-02 0.61262E-02 0.47376E-02 0.55135E-02 0.77651E-02 0.10418E-01 0.12573E-01 0.13848E-01 0.14374E-01
 0.14492E-01 0.14374E-01 0.13848E-01 0.12573E-01 0.10418E-01 0.77651E-02 0.55135E-02 0.47376E-02 0.61262E-02 0.94901E-02
 0.13687E-01 0.17128E-01 0.18613E-01 0.17947E-01 0.15936E-01 0.13786E-01 0.12353E-01 0.11711E-01 0.11266E-01 0.10301E-01
 0.85302E-02 0.62781E-02 0.41832E-02 0.27243E-02 0.19624E-02 0.16348E-02 0.14190E-02 0.11300E-02 0.76607E-03 0.44986E-03
 0.30476E-03 0.42032E-03 0.71122E-03 0.10488E-02 0.13235E-02 0.15462E-02 0.19134E-02 0.27631E-02 0.43574E-02 0.65943E-02
 0.89226E-02 0.10652E-01 0.11474E-01 0.11740E-01 0.12235E-01 0.13585E-01 0.15719E-01 0.17774E-01 0.18527E-01 0.17163E-01
 0.13909E-01 0.10054E-01 0.72491E-02 0.65379E-02 0.77651E-02 0.97350E-02 0.10965E-01 0.10570E-01 0.87765E-02 0.67709E-02
 0.59059E-02 0.67709E-02 0.87765E-02 0.10570E-01 0.10965E-01 0.97350E-02 0.77651E-02 0.65379E-02 0.72491E-02 0.10054E-01
 0.13909E-01 0.17163E-01 0.18527E-01 0.17774E-01 0.15719E-01 0.13585E-01 0.12235E-01 0.11740E-01 0.11474E-01 0.10652E-01
 0.89226E-02 0.65943E-02 0.43574E-02 0.27631E-02 0.19134E-02 0.15462E-02 0.13235E-02 0.10488E-02 0.71122E-03 0.42032E-03
 0.24451E-03 0.35376E-03 0.63374E-03 0.97164E-03 0.12667E-02 0.15279E-02 0.19492E-02 0.28719E-02 0.45567E-02 0.68784E-02
 0.92472E-02 0.10948E-01 0.11678E-01 0.11819E-01 0.12177E-01 0.13384E-01 0.15394E-01 0.17394E-01 0.18230E-01 0.17145E-01
 0.14400E-01 0.11281E-01 0.93262E-02 0.92689E-02 0.10418E-01 0.10965E-01 0.90699E-02 0.41032E-02 -.26900E-02 -.86204E-02
 -.10976E-01 -.86204E-02 -.26900E-02 0.41032E-02 0.90699E-02 0.10965E-01 0.10418E-01 0.92689E-02 0.93262E-02 0.11281E-01
 0.14400E-01 0.17145E-01 0.18230E-01 0.17394E-01 0.15394E-01 0.13384E-01 0.12177E-01 0.11819E-01 0.11678E-01 0.10948E-01
 0.92472E-02 0.68784E-02 0.45567E-02 0.28719E-02 0.19492E-02 0.15279E-02 0.12667E-02 0.97164E-03 0.63374E-03 0.35376E-03
 0.18115E-03 0.29418E-03 0.58592E-03 0.94403E-03 0.12664E-02 0.15575E-02 0.20050E-02 0.29453E-02 0.46404E-02 0.69720E-02
 0.93595E-02 0.11089E-01 0.11848E-01 0.11990E-01 0.12292E-01 0.13380E-01 0.15244E-01 0.17158E-01 0.18078E-01 0.17347E-01
 0.15258E-01 0.13015E-01 0.11908E-01 0.12207E-01 0.12573E-01 0.10570E-01 0.41032E-02 -.69766E-02 -.20130E-01 -.30912E-01
 -.35086E-01 -.30912E-01 -.20130E-01 -.69766E-02 0.41032E-02 0.10570E-01 0.12573E-01 0.12207E-01 0.11908E-01 0.13015E-01
 0.15258E-01 0.17347E-01 0.18078E-01 0.17158E-01 0.15244E-01 0.13380E-01 0.12292E-01 0.11990E-01 0.11848E-01 0.11089E-01
 0.93595E-02 0.69720E-02 0.46404E-02 0.29453E-02 0.20050E-02 0.15575E-02 0.12664E-02 0.94403E-03 0.58592E-03 0.29418E-03
 0.13872E-03 0.26214E-03 0.57761E-03 0.95808E-03 0.12923E-02 0.15827E-02 0.20132E-02 0.29136E-02 0.45510E-02 0.68380E-02
 0.92369E-02 0.11054E-01 0.11946E-01 0.12206E-01 0.12552E-01 0.13593E-01 0.15359E-01 0.17212E-01 0.18225E-01 0.17840E-01
 0.16375E-01 0.14915E-01 0.14449E-01 0.14747E-01 0.13848E-01 0.87765E-02 -.26900E-02 -.20130E-01 -.39704E-01 -.55295E-01
 -.61256E-01 -.55295E-01 -.39704E-01 -.20130E-01 -.26900E-02 0.87765E-02 0.13848E-01 0.14747E-01 0.14449E-01 0.14915E-01
 0.16375E-01 0.17840E-01 0.18225E-01 0.17212E-01 0.15359E-01 0.13593E-01 0.12552E-01 0.12206E-01 0.11946E-01 0.11054E-01
 0.92369E-02 0.68380E-02 0.45510E-02 0.29136E-02 0.20132E-02 0.15827E-02 0.12923E-02 0.95808E-03 0.57761E-03 0.26214E-03
 0.11842E-03 0.25128E-03 0.58638E-03 0.97974E-03 0.13104E-02 0.15808E-02 0.19745E-02 0.28170E-02 0.43819E-02 0.66148E-02
 0.90236E-02 0.10935E-01 0.11979E-01 0.12382E-01 0.12812E-01 0.13861E-01 0.15588E-01 0.17421E-01 0.18516E-01 0.18388E-01
 0.17365E-01 0.16433E-01 0.16332E-01 0.16449E-01 0.14374E-01 0.67709E-02 -.86204E-02 -.30912E-01 -.55295E-01 -.74447E-01
 -.81725E-01 -.74447E-01 -.55295E-01 -.30912E-01 -.86204E-02 0.67709E-02 0.14374E-01 0.16449E-01 0.16332E-01 0.16433E-01
 0.17365E-01 0.18388E-01 0.18516E-01 0.17421E-01 0.15588E-01 0.13861E-01 0.12812E-01 0.12382E-01 0.11979E-01 0.10935E-01
 0.90236E-02 0.66148E-02 0.43819E-02 0.28170E-02 0.19745E-02 0.15808E-02 0.13104E-02 0.97974E-03 0.58638E-03 0.25128E-03
 0.11284E-03 0.24927E-03 0.59146E-03 0.98831E-03 0.13149E-02 0.15740E-02 0.19494E-02 0.27652E-02 0.42984E-02 0.65081E-02
 0.89214E-02 0.10874E-01 0.11982E-01 0.12449E-01 0.12920E-01 0.13980E-01 0.15700E-01 0.17531E-01 0.18660E-01 0.18627E-01
 0.17765E-01 0.17017E-01 0.17030E-01 0.17047E-01 0.14492E-01 0.59059E-02 -.10976E-01 -.35086E-01 -.61256E-01 -.81725E-01
 -.89487E-01 -.81725E-01 -.61256E-01 -.35086E-01 -.10976E-01 0.59059E-02 0.14492E-01 0.17047E-01 0.17030E-01 0.17017E-01
 0.17765E-01 0.18627E-01 0.18660E-01 0.17531E-01 0.15700E-01 0.13980E-01 0.12920E-01 0.12449E-01 0.11982E-01 0.10874E-01
 0.89214E-02 0.65081E-02 0.42984E-02 0.27652E-02 0.19494E-02 0.15740E-02 0.13149E-02 0.98831E-03 0.59146E-03 0.24927E-03
 0.11842E-03 0.25128E-03 0.58638E-03 0.97974E-03 0.13104E-02 0.15808E-02 0.19745E-02 0.28170E-02 0.43819E-02 0.66148E-02
 0.90236E-02 0.10935E-01 0.11979E-01 0.12382E-01 0.12812E-01 0.13861E-01 0.15588E-01 0.17421E-01 0.18516E-01 0.18388E-01
 0.17365E-01 0.16433E-01 0.16332E-01 0.16449E-01 0.14374E-01 0.67709E-02 -.86204E-02 -.30912E-01 -.55295E-01 -.74447E-01
 -.81725E-01 -.74447E-01 -.55295E-01 -.30912E-01 -.86204E-02 0.67709E-02 0.14374E-01 0.16449E-01 0.16332E-01 0.16433E-01
 0.17365E-01 0.18388E-01 0.18516E-01 0.17421E-01 0.15588E-01 0.13861E-01 0.12812E-01 0.12382E-01 0.11979E-01 0.10935E-01
 0.90236E-02 0.66148E-02 0.43819E-02 0.28170E-02 0.19745E-02 0.15808E-02 0.13104E-02 0.97974E-03 0.58638E-03 0.25128E-03
 0.13872E-03 0.26214E-03 0.57761E-03 0.95808E-03 0.12923E-02 0.15827E-02 0.20132E-02 0.29136E-02 0.45510E-02 0.68380E-02
 0.92369E-02 0.11054E-01 0.11946E-01 0.12206E-01 0.12552E-01 0.13593E-01 0.15359E-01 0.17212E-01 0.18225E-01 0.17840E-01
 0.16375E-01 0.14915E-01 0.14449E-01 0.14747E-01 0.13848E-01 0.87765E-02 -.26900E-02 -.20130E-01 -.39704E-01 -.55295E-01
 -.61256E-01 -.55295E-01 -.39704E-01 -.20130E-01 -.26900E-02 0.87765E-02 0.13848E-01 0.14747E-01 0.14449E-01 0.14915E-01
 0.16375E-01 0.17840E-01 0.18225E-01 0.17212E-01 0.15359E-01 0.13593E-01 0.12552E-01 0.12206E-01 0.11946E-01 0.11054E-01
 0.92369E-02 0.68380E-02 0.45510E-02 0.29136E-02 0.20132E-02 0.15827E-02 0.12923E-02 0.95808E-03 0.57761E-03 0.26214E-03
 0.18115E-03 0.29418E-03 0.58592E-03 0.94403E-03 0.12664E-02 0.15575E-02 0.20050E-02 0.29453E-02 0.46404E-02 0.69720E-02
 0.93595E-02 0.11089E-01 0.11848E-01 0.11990E-01 0.12292E-01 0.13380E-01 0.15244E-01 0.17158E-01 0.18078E-01 0.17347E-01
 0.15258E-01 0.13015E-01 0.11908E-01 0.12207E-01 0.12573E-01 0.10570E-01 0.41032E-02 -.69766E-02 -.20130E-01 -.30912E-01
 -.35086E-01 -.30912E-01 -.20130E-01 -.69766E-02 0.41032E-02 0.10570E-01 0.12573E-01 0.12207E-01 0.11908E-01 0.13015E-01
 0.15258E-01 0.17347E-01 0.18078E-01 0.17158E-01 0.15244E-01 0.13380E-01 0.12292E-01 0.11990E-01 0.11848E-01 0.11089E-01
 0.93595E-02 0.69720E-02 0.46404E-02 0.29453E-02 0.20050E-02 0.15575E-02 0.12664E-02 0.94403E-03 0.58592E-03 0.29418E-03
 0.24451E-03 0.35376E-03 0.63374E-03 0.97164E-03 0.12667E-02 0.15279E-02 0.19492E-02 0.28719E-02 0.45567E-02 0.68784E-02
 0.92472E-02 0.10948E-01 0.11678E-01 0.11819E-01 0.12177E-01 0.13384E-01 0.15394E-01 0.17394E-01 0.18230E-01 0.17145E-01
 0.14400E-01 0.11281E-01 0.93262E-02 0.92689E-02 0.10418E-01 0.10965E-01 0.90699E-02 0.41032E-02 -.26900E-02 -.86204E-02
 -.10976E-01 -.86204E-02 -.26900E-02 0.41032E-02 0.90699E-02 0.10965E-01 0.10418E-01 0.92689E-02 0.93262E-02 0.11281E-01
 0.14400E-01 0.17145E-01 0.18230E-01 0.17394E-01 0.15394E-01 0.13384E-01 0.12177E-01 0.11819E-01 0.11678E-01 0.10948E-01
 0.92472E-02 0.68784E-02 0.45567E-02 0.28719E-02 0.19492E-02 0.15279E-02 0.12667E-02 0.97164E-03 0.63374E-03 0.35376E-03
 0.30476E-03 0.42032E-03 0.71122E-03 0.10488E-02 0.13235E-02 0.15462E-02 0.19134E-02 0.27631E-02 0.43574E-02 0.65943E-02
 0.89226E-02 0.10652E-01 0.11474E-01 0.11740E-01 0.12235E-01 0.13585E-01 0.15719E-01 0.17774E-01 0.18527E-01 0.17163E-01
 0.13909E-01 0.10054E-01 0.72491E-02 0.65379E-02 0.77651E-02 0.97350E-02 0.10965E-01 0.10570E-01 0.87765E-02 0.67709E-02
 0.59059E-02 0.67709E-02 0.87765E-02 0.10570E-01 0.10965E-01 0.97350E-02 0.77651E-02 0.65379E-02 0.72491E-02 0.10054E-01
 0.13909E-01 0.17163E-01 0.18527E-01 0.17774E-01 0.15719E-01 0.13585E-01 0.12235E-01 0.11740E-01 0.11474E-01 0.10652E-01
 0.89226E-02 0.65943E-02 0.43574E-02 0.27631E-02 0.19134E-02 0.15462E-02 0.13235E-02 0.10488E-02 0.71122E-03 0.42032E-03
 0.32385E-03 0.44986E-03 0.76607E-03 0.11300E-02 0.14190E-02 0.16348E-02 0.19624E-02 0.27243E-02 0.41832E-02 0.62781E-02
 0.85302E-02 0.10301E-01 0.11266E-01 0.11711E-01 0.12353E-01 0.13786E-01 0.15936E-01 0.17947E-01 0.18613E-01 0.17128E-01
 0.13687E-01 0.94901E-02 0.61262E-02 0.47376E-02 0.55135E-02 0.77651E-02 0.10418E-01 0.12573E-01 0.13848E-01 0.14374E-01
 0.14492E-01 0.14374E-01 0.13848E-01 0.12573E-01 0.10418E-01 0.77651E-02 0.55135E-02 0.47376E-02 0.61262E-02 0.94901E-02
 0.13687E-01 0.17128E-01 0.18613E-01 0.17947E-01 0.15936E-01 0.13786E-01 0.12353E-01 0.11711E-01 0.11266E-01 0.10301E-01
 0.85302E-02 0.62781E-02 0.41832E-02 0.27243E-02 0.19624E-02 0.16348E-02 0.14190E-02 0.11300E-02 0.76607E-03 0.44986E-03
 0.28966E-03 0.41926E-03 0.75257E-03 0.11554E-02 0.14987E-02 0.17605E-02 0.20950E-02 0.27972E-02 0.41244E-02 0.60541E-02
 0.81872E-02 0.99542E-02 0.11030E-01 0.11622E-01 0.12354E-01 0.13762E-01 0.15787E-01 0.17645E-01 0.18242E-01 0.16857E-01
 0.13662E-01 0.96898E-02 0.63078E-02 0.45494E-02 0.47376E-02 0.65379E-02 0.92689E-02 0.12207E-01 0.14747E-01 0.16449E-01
 0.17047E-01 0.16449E-01 0.14747E-01 0.12207E-01 0.92689E-02 0.65379E-02 0.47376E-02 0.45494E-02 0.63078E-02 0.96898E-02
 0.13662E-01 0.16857E-01 0.18242E-01 0.17645E-01 0.15787E-01 0.13762E-01 0.12354E-01 0.11622E-01 0.11030E-01 0.99542E-02
 0.81872E-02 0.60541E-02 0.41244E-02 0.27972E-02 0.20950E-02 0.17605E-02 0.14987E-02 0.11554E-02 0.75257E-03 0.41926E-03
 0.24650E-03 0.36658E-03 0.69016E-03 0.11164E-02 0.15244E-02 0.18648E-02 0.22479E-02 0.29296E-02 0.41492E-02 0.59083E-02
 0.78793E-02 0.95736E-02 0.10689E-01 0.11371E-01 0.12133E-01 0.13438E-01 0.15248E-01 0.16903E-01 0.17490E-01 0.16437E-01
 0.13904E-01 0.10721E-01 0.79312E-02 0.63078E-02 0.61262E-02 0.72491E-02 0.93262E-02 0.11908E-01 0.14449E-01 0.16332E-01
 0.17030E-01 0.16332E-01 0.14449E-01 0.11908E-01 0.93262E-02 0.72491E-02 0.61262E-02 0.63078E-02 0.79312E-02 0.10721E-01
 0.13904E-01 0.16437E-01 0.17490E-01 0.16903E-01 0.15248E-01 0.13438E-01 0.12133E-01 0.11371E-01 0.10689E-01 0.95736E-02
 0.78793E-02 0.59083E-02 0.41492E-02 0.29296E-02 0.22479E-02 0.18648E-02 0.15244E-02 0.11164E-02 0.69016E-03 0.36658E-03
 0.26761E-03 0.36708E-03 0.65003E-03 0.10585E-02 0.14966E-02 0.19021E-02 0.23425E-02 0.30222E-02 0.41457E-02 0.57252E-02
 0.75001E-02 0.90708E-02 0.10179E-01 0.10925E-01 0.11714E-01 0.12924E-01 0.14529E-01 0.16014E-01 0.16678E-01 0.16117E-01
 0.14505E-01 0.12472E-01 0.10721E-01 0.96898E-02 0.94901E-02 0.10054E-01 0.11281E-01 0.13015E-01 0.14915E-01 0.16433E-01
 0.17017E-01 0.16433E-01 0.14915E-01 0.13015E-01 0.11281E-01 0.10054E-01 0.94901E-02 0.96898E-02 0.10721E-01 0.12472E-01
 0.14505E-01 0.16117E-01 0.16678E-01 0.16014E-01 0.14529E-01 0.12924E-01 0.11714E-01 0.10925E-01 0.10179E-01 0.90708E-02
 0.75001E-02 0.57252E-02 0.41457E-02 0.30222E-02 0.23425E-02 0.19021E-02 0.14966E-02 0.10585E-02 0.65003E-03 0.36708E-03
 0.38334E-03 0.45680E-03 0.67625E-03 0.10201E-02 0.14301E-02 0.18548E-02 0.23303E-02 0.30006E-02 0.40221E-02 0.54117E-02
 0.69763E-02 0.84088E-02 0.95048E-02 0.10334E-01 0.11203E-01 0.12394E-01 0.13881E-01 0.15271E-01 0.16063E-01 0.16021E-01
 0.15344E-01 0.14505E-01 0.13904E-01 0.13662E-01 0.13687E-01 0.13909E-01 0.14400E-01 0.15258E-01 0.16375E-01 0.17365E-01
 0.17765E-01 0.17365E-01 0.16375E-01 0.15258E-01 0.14400E-01 0.13909E-01 0.13687E-01 0.13662E-01 0.13904E-01 0.14505E-01