    5    5    1    1
  0.4320000E+02  0.6000000E-09  0.6000000E-09  0.6000000E-09  0.5000000E-15
  1.000000000000000E-004
  CAR 
 unknown system                          
      8      1      8
 
  0.0000000E+00  0.0000000E+00  0.0000000E+00  0.1000000E+01
    1      -16.302069
    2       -8.688840
    3       -8.688840
    4       -8.688840
    5       -0.694853
    6        2.752124
    7        2.752124
    8        3.429332
