<?xml version="1.0" encoding="ISO-8859-1"?>
<modeling>
 <generator>
  <i name="program" type="string">vasp </i>
  <i name="version" type="string">5.3.5  </i>
  <i name="subversion" type="string">31Mar14 (build Jan 09 2015 16:57:47) complex                          serial </i>
  <i name="platform" type="string">LinuxIFC </i>
  <i name="date" type="string">2016 02 16 </i>
  <i name="time" type="string">10:03:59 </i>
 </generator>
 <incar>
  <i type="string" name="PREC">normal</i>
  <i type="int" name="IBRION">    -1</i>
  <i type="string" name="GGA"> PS</i>
 </incar>
 <kpoints>
  <generation param="Monkhorst-Pack">
   <v type="int" name="divisions">       1        1        1 </v>
   <v name="usershift">      0.00000000       0.00000000       0.00000000 </v>
   <v name="genvec1">      1.00000000       0.00000000       0.00000000 </v>
   <v name="genvec2">      0.00000000       1.00000000       0.00000000 </v>
   <v name="genvec3">      0.00000000       0.00000000       1.00000000 </v>
   <v name="shift">      0.00000000       0.00000000       0.00000000 </v>
  </generation>
  <varray name="kpointlist" >
   <v>       0.00000000       0.00000000       0.00000000 </v>
  </varray>
  <varray name="weights" >
   <v>       1.00000000 </v>
  </varray>
 </kpoints>
 <parameters>
  <separator name="general" >
   <i type="string" name="SYSTEM">unknown system</i>
   <i type="logical" name="LCOMPAT"> F  </i>
  </separator>
  <separator name="electronic" >
   <i type="string" name="PREC">normal</i>
   <i name="ENMAX">    400.00000000</i>
   <i name="ENAUG">    644.87300000</i>
   <i name="EDIFF">      0.00010000</i>
   <i type="int" name="IALGO">    38</i>
   <i type="int" name="IWAVPR">     0</i>
   <i type="int" name="NBANDS">     8</i>
   <i name="NELECT">      8.00000000</i>
   <i type="int" name="TURBO">     0</i>
   <i type="int" name="IRESTART">     0</i>
   <i type="int" name="NREBOOT">     0</i>
   <i type="int" name="NMIN">     0</i>
   <i name="EREF">      0.00000000</i>
   <separator name="electronic smearing" >
    <i type="int" name="ISMEAR">     1</i>
    <i name="SIGMA">      0.20000000</i>
    <i name="KSPACING">      0.50000000</i>
    <i type="logical" name="KGAMMA"> T  </i>
   </separator>
   <separator name="electronic projectors" >
    <i type="logical" name="LREAL"> F  </i>
    <v name="ROPT">      0.00000000      0.00000000</v>
    <i type="int" name="LMAXPAW">  -100</i>
    <i type="int" name="LMAXMIX">     2</i>
    <i type="logical" name="NLSPLINE"> F  </i>
   </separator>
   <separator name="electronic startup" >
    <i type="int" name="ISTART">     1</i>
    <i type="int" name="ICHARG">     0</i>
    <i type="int" name="INIWAV">     1</i>
   </separator>
   <separator name="electronic spin" >
    <i type="int" name="ISPIN">     1</i>
    <i type="logical" name="LNONCOLLINEAR"> F  </i>
    <v name="MAGMOM">      1.00000000      1.00000000      1.00000000      1.00000000      1.00000000</v>
    <i name="NUPDOWN">     -1.00000000</i>
    <i type="logical" name="LSORBIT"> F  </i>
    <v name="SAXIS">      0.00000000      0.00000000      1.00000000</v>
    <i type="logical" name="LSPIRAL"> F  </i>
    <v name="QSPIRAL">      0.00000000      0.00000000      0.00000000</v>
    <i type="logical" name="LZEROZ"> F  </i>
   </separator>
   <separator name="electronic exchange-correlation" >
    <i type="logical" name="LASPH"> F  </i>
    <i type="logical" name="LMETAGGA"> F  </i>
   </separator>
   <separator name="electronic convergence" >
    <i type="int" name="NELM">    60</i>
    <i type="int" name="NELMDL">     0</i>
    <i type="int" name="NELMIN">     2</i>
    <i name="ENINI">    400.00000000</i>
    <separator name="electronic convergence detail" >
     <i type="logical" name="LDIAG"> T  </i>
     <i type="logical" name="LSUBROT"> F  </i>
     <i name="WEIMIN">      0.00000000</i>
     <i name="EBREAK">      0.00000313</i>
     <i name="DEPER">      0.30000000</i>
     <i type="int" name="NRMM">     4</i>
     <i name="TIME">      0.40000000</i>
    </separator>
   </separator>
   <separator name="electronic mixer" >
    <i name="AMIX">      0.40000000</i>
    <i name="BMIX">      1.00000000</i>
    <i name="AMIN">      0.10000000</i>
    <i name="AMIX_MAG">      1.60000000</i>
    <i name="BMIX_MAG">      1.00000000</i>
    <separator name="electronic mixer details" >
     <i type="int" name="IMIX">     4</i>
     <i type="int" name="MAXMIX">   -45</i>
     <i name="WC">    100.00000000</i>
     <i type="int" name="INIMIX">     1</i>
     <i type="int" name="MIXPRE">     1</i>
     <i type="int" name="MREMOVE">     5</i>
    </separator>
   </separator>
   <separator name="electronic dipolcorrection" >
    <i type="logical" name="LDIPOL"> F  </i>
    <i type="logical" name="LMONO"> F  </i>
    <i type="int" name="IDIPOL">     0</i>
    <i name="EPSILON">      1.00000000</i>
    <v name="DIPOL">   -100.00000000   -100.00000000   -100.00000000</v>
    <i name="EFIELD">      0.00000000</i>
   </separator>
  </separator>
  <separator name="grids" >
   <i type="int" name="NGX">    30</i>
   <i type="int" name="NGY">    30</i>
   <i type="int" name="NGZ">    30</i>
   <i type="int" name="NGXF">    60</i>
   <i type="int" name="NGYF">    60</i>
   <i type="int" name="NGZF">    60</i>
   <i type="logical" name="ADDGRID"> F  </i>
  </separator>
  <separator name="ionic" >
   <i type="int" name="NSW">     0</i>
   <i type="int" name="IBRION">    -1</i>
   <i type="int" name="ISIF">     2</i>
   <i name="PSTRESS">      0.00000000</i>
   <i name="EDIFFG">      0.00100000</i>
   <i type="int" name="NFREE">     0</i>
   <i name="POTIM">      0.50000000</i>
   <i name="SMASS">     -3.00000000</i>
   <i name="SCALEE">      1.00000000</i>
  </separator>
  <separator name="ionic md" >
   <i name="TEBEG">      0.00010000</i>
   <i name="TEEND">      0.00010000</i>
   <i type="int" name="NBLOCK">     1</i>
   <i type="int" name="KBLOCK">     1</i>
   <i type="int" name="NPACO">   256</i>
   <i name="APACO">     16.00000000</i>
  </separator>
  <separator name="symmetry" >
   <i type="int" name="ISYM">     2</i>
   <i name="SYMPREC">      0.00001000</i>
  </separator>
  <separator name="dos" >
   <i type="logical" name="LORBIT"> F  </i>
   <v name="RWIGS">     -1.00000000     -1.00000000</v>
   <i type="int" name="NEDOS">   301</i>
   <i name="EMIN">     10.00000000</i>
   <i name="EMAX">    -10.00000000</i>
   <i name="EFERMI">      0.00000000</i>
  </separator>
  <separator name="writing" >
   <i type="int" name="NWRITE">     2</i>
   <i type="logical" name="LWAVE"> T  </i>
   <i type="logical" name="LCHARG"> T  </i>
   <i type="logical" name="LPARD"> F  </i>
   <i type="logical" name="LVTOT"> F  </i>
   <i type="logical" name="LVHAR"> F  </i>
   <i type="logical" name="LELF"> F  </i>
   <i type="logical" name="LOPTICS"> F  </i>
   <v name="STM">      0.00000000      0.00000000      0.00000000      0.00000000      0.00000000      0.00000000      0.00000000</v>
  </separator>
  <separator name="performance" >
   <i type="int" name="NPAR">     1</i>
   <i type="int" name="NSIM">     4</i>
   <i type="int" name="NBLK">    -1</i>
   <i type="logical" name="LPLANE"> T  </i>
   <i type="logical" name="LSCALAPACK"> F  </i>
   <i type="logical" name="LSCAAWARE"> F  </i>
   <i type="logical" name="LSCALU"> F  </i>
   <i type="logical" name="LASYNC"> F  </i>
   <i type="logical" name="LORBITALREAL"> F  </i>
  </separator>
  <separator name="miscellaneous" >
   <i type="int" name="IDIOT">     3</i>
   <i type="logical" name="LMUSIC"> F  </i>
   <v name="POMASS">     12.01100000      1.00000000</v>
   <v name="DARWINR">      0.00000000      0.00000000</v>
   <v name="DARWINV">      1.00000000      1.00000000</v>
   <i type="logical" name="LCORR"> T  </i>
  </separator>
  <i type="logical" name="GGA_COMPAT"> T  </i>
  <i type="logical" name="LBERRY"> F  </i>
  <i type="int" name="ICORELEVEL">     0</i>
  <i type="logical" name="LDAU"> F  </i>
  <i type="int" name="I_CONSTRAINED_M">     0</i>
  <separator name="electronic exchange-correlation" >
   <i type="string" name="GGA">PS</i>
   <i type="int" name="VOSKOWN">     0</i>
   <i type="logical" name="LHFCALC"> F  </i>
   <i type="string" name="PRECFOCK"></i>
   <i type="logical" name="LSYMGRAD"> F  </i>
   <i type="logical" name="LHFONE"> F  </i>
   <i type="logical" name="LRHFCALC"> F  </i>
   <i type="logical" name="LTHOMAS"> F  </i>
   <i type="logical" name="LMODELHF"> F  </i>
   <i name="ENCUT4O">     -1.00000000</i>
   <i type="int" name="EXXOEP">     0</i>
   <i type="int" name="FOURORBIT">     0</i>
   <i name="AEXX">      0.00000000</i>
   <i name="HFALPHA">      0.00000000</i>
   <i name="MCALPHA">      0.00000000</i>
   <i name="ALDAX">      1.00000000</i>
   <i name="AGGAX">      1.00000000</i>
   <i name="ALDAC">      1.00000000</i>
   <i name="AGGAC">      1.00000000</i>
   <i type="int" name="NKREDX">     1</i>
   <i type="int" name="NKREDY">     1</i>
   <i type="int" name="NKREDZ">     1</i>
   <i type="logical" name="SHIFTRED"> F  </i>
   <i type="logical" name="ODDONLY"> F  </i>
   <i type="logical" name="EVENONLY"> F  </i>
   <i type="int" name="LMAXFOCK">     0</i>
   <i type="int" name="NMAXFOCKAE">     0</i>
   <i type="logical" name="LFOCKAEDFT"> F  </i>
   <i name="HFSCREEN">      0.00000000</i>
   <i name="HFSCREENC">      0.00000000</i>
   <i type="int" name="NBANDSGWLOW">     0</i>
  </separator>
  <separator name="vdW DFT" >
   <i type="logical" name="LUSE_VDW"> F  </i>
   <i name="Zab_VDW">     -0.84910000</i>
   <i name="PARAM1">      0.12340000</i>
   <i name="PARAM2">      1.00000000</i>
   <i name="PARAM3">      0.00000000</i>
  </separator>
  <separator name="model GW" >
   <i type="int" name="MODEL_GW">     0</i>
   <i name="MODEL_EPS0">     25.92000000</i>
   <i name="MODEL_ALPHA">      1.00000000</i>
  </separator>
  <separator name="linear response parameters" >
   <i type="logical" name="LEPSILON"> F  </i>
   <i type="logical" name="LRPA"> F  </i>
   <i type="logical" name="LNABLA"> F  </i>
   <i type="logical" name="LVEL"> F  </i>
   <i type="int" name="KINTER">     0</i>
   <i name="CSHIFT">      0.10000000</i>
   <i name="OMEGAMAX">     -1.00000000</i>
   <i name="DEG_THRESHOLD">      0.00200000</i>
  </separator>
  <separator name="orbital magnetization" >
   <i type="logical" name="NUCIND"> F  </i>
   <v name="MAGPOS">      0.00000000      0.00000000      0.00000000</v>
   <i type="logical" name="LNICSALL"> T  </i>
   <i type="logical" name="ORBITALMAG"> F  </i>
   <i type="logical" name="LMAGBLOCH"> F  </i>
   <i type="logical" name="LCHIMAG"> F  </i>
   <i type="logical" name="LGAUGE"> T  </i>
   <i type="int" name="MAGATOM">     0</i>
   <v name="MAGDIPOL">      0.00000000      0.00000000      0.00000000</v>
   <v name="AVECCONST">      0.00000000      0.00000000      0.00000000</v>
  </separator>
  <separator name="response functions" >
   <i type="logical" name="LADDER"> F  </i>
   <i type="logical" name="LFXC"> F  </i>
   <i type="logical" name="LHARTREE"> T  </i>
   <i type="int" name="IBSE">     0</i>
   <i type="logical" name="LTCTE"> F  </i>
   <i type="logical" name="LTETE"> F  </i>
   <i type="logical" name="LTRIPLET"> F  </i>
   <i type="logical" name="LFXCEPS"> F  </i>
   <i type="logical" name="LFXHEG"> F  </i>
   <i type="logical" name="L2ORDER"> F  </i>
   <i type="logical" name="LUSEW"> F  </i>
   <i name="ENCUTGW">     -2.00000000</i>
   <i name="ENCUTGWSOFT">     -2.00000000</i>
   <i name="ENCUTLF">     -1.00000000</i>
   <i type="int" name="LMAXMP2">    -1</i>
   <i name="SCISSOR">      0.00000000</i>
   <i type="int" name="NOMEGA">     0</i>
   <i type="int" name="NOMEGAR">     0</i>
   <i type="int" name="NBANDSGW">    -1</i>
   <i type="int" name="NBANDSO">    -1</i>
   <i type="int" name="NBANDSV">    -1</i>
   <i type="int" name="NELM">     1</i>
   <i type="int" name="DIM">     3</i>
   <i type="int" name="ANTIRES">     0</i>
   <i name="OMEGAMAX">    -30.00000000</i>
   <i name="OMEGAMIN">    -30.00000000</i>
   <i name="OMEGATL">   -200.00000000</i>
   <i type="int" name="OMEGAGRID">     0</i>
   <i name="CSHIFT">     -0.10000000</i>
   <i type="logical" name="SELFENERGY"> F  </i>
   <i type="logical" name="LSPECTRAL"> F  </i>
   <i type="logical" name="ODDONLYGW"> F  </i>
   <i type="logical" name="EVENONLYGW"> F  </i>
   <i type="int" name="NKREDLFX">     1</i>
   <i type="int" name="NKREDLFY">     1</i>
   <i type="int" name="NKREDLFZ">     1</i>
   <i type="int" name="MAXMEM">  1800</i>
   <i type="int" name="TELESCOPE">     0</i>
   <i type="int" name="TAUPAR">     1</i>
  </separator>
  <separator name="External order field" >
   <i name="OFIELD_KAPPA">      0.00000000</i>
   <v name="OFIELD_K">      0.00000000      0.00000000      0.00000000</v>
   <i name="OFIELD_Q6_NEAR">      0.00000000</i>
   <i name="OFIELD_Q6_FAR">      0.00000000</i>
   <i name="OFIELD_A">      0.00000000</i>
  </separator>
 </parameters>
 <atominfo>
  <atoms>       5 </atoms>
  <types>       2 </types>
  <array name="atoms" >
   <dimension dim="1">ion</dimension>
   <field type="string">element</field>
   <field type="int">atomtype</field>
   <set>
    <rc><c>C </c><c>   1</c></rc>
    <rc><c>H </c><c>   2</c></rc>
    <rc><c>H </c><c>   2</c></rc>
    <rc><c>H </c><c>   2</c></rc>
    <rc><c>H </c><c>   2</c></rc>
   </set>
  </array>
  <array name="atomtypes" >
   <dimension dim="1">type</dimension>
   <field type="int">atomspertype</field>
   <field type="string">element</field>
   <field>mass</field>
   <field>valence</field>
   <field type="string">pseudopotential</field>
   <set>
    <rc><c>   1</c><c>C </c><c>     12.01100000</c><c>      4.00000000</c><c>  PAW_PBE C 08Apr2002                   </c></rc>
    <rc><c>   4</c><c>H </c><c>      1.00000000</c><c>      1.00000000</c><c>  PAW_PBE H 15Jun2001                   </c></rc>
   </set>
  </array>
 </atominfo>
 <structure name="initialpos" >
  <crystal>
   <varray name="basis" >
    <v>       6.00000000       0.00000000       0.00000000 </v>
    <v>       0.00000000       6.00000000       0.00000000 </v>
    <v>       0.00000000       0.00000000       6.00000000 </v>
   </varray>
   <i name="volume">    216.00000000 </i>
   <varray name="rec_basis" >
    <v>       0.16666667       0.00000000       0.00000000 </v>
    <v>       0.00000000       0.16666667       0.00000000 </v>
    <v>       0.00000000       0.00000000       0.16666667 </v>
   </varray>
  </crystal>
  <varray name="positions" >
   <v>       0.50000000       0.50000000       0.50000000 </v>
   <v>       0.60485300       0.60485300       0.60485300 </v>
   <v>       0.39514700       0.39514700       0.60485300 </v>
   <v>       0.60485300       0.39514700       0.39514700 </v>
   <v>       0.39514700       0.60485300       0.39514700 </v>
  </varray>
 </structure>
 <calculation>
  <scstep>
   <time name="dav">    0.17    0.17</time>
   <time name="total">    0.55    0.55</time>
   <energy>
    <i name="alphaZ">      1.12153144 </i>
    <i name="ewald">     47.21739523 </i>
    <i name="hartreedc">   -207.57877532 </i>
    <i name="XCdc">     25.03095626 </i>
    <i name="pawpsdc">    482.17247342 </i>
    <i name="pawaedc">   -482.67408781 </i>
    <i name="eentropy">      0.03478743 </i>
    <i name="bandstr">    -84.73765903 </i>
    <i name="atom">    195.57450550 </i>
    <i name="e_fr_energy">    -23.83887288 </i>
    <i name="e_wo_entrp">    -23.87366031 </i>
    <i name="e_0_energy">    -23.85046869 </i>
   </energy>
  </scstep>
  <scstep>
   <time name="dav">    0.12    0.12</time>
   <time name="total">    0.52    0.53</time>
   <energy>
    <i name="alphaZ">      1.12153144 </i>
    <i name="ewald">     47.21739523 </i>
    <i name="hartreedc">   -207.57928120 </i>
    <i name="XCdc">     25.03098390 </i>
    <i name="pawpsdc">    482.17525520 </i>
    <i name="pawaedc">   -482.67687302 </i>
    <i name="eentropy">      0.03478743 </i>
    <i name="bandstr">    -84.73717736 </i>
    <i name="atom">    195.57450550 </i>
    <i name="e_fr_energy">    -23.83887288 </i>
    <i name="e_wo_entrp">    -23.87366031 </i>
    <i name="e_0_energy">    -23.85046869 </i>
   </energy>
  </scstep>
  <structure>
   <crystal>
    <varray name="basis" >
     <v>       6.00000000       0.00000000       0.00000000 </v>
     <v>       0.00000000       6.00000000       0.00000000 </v>
     <v>       0.00000000       0.00000000       6.00000000 </v>
    </varray>
    <i name="volume">    216.00000000 </i>
    <varray name="rec_basis" >
     <v>       0.16666667       0.00000000       0.00000000 </v>
     <v>       0.00000000       0.16666667       0.00000000 </v>
     <v>       0.00000000       0.00000000       0.16666667 </v>
    </varray>
   </crystal>
   <varray name="positions" >
    <v>       0.50000000       0.50000000       0.50000000 </v>
    <v>       0.60485300       0.60485300       0.60485300 </v>
    <v>       0.39514700       0.39514700       0.60485300 </v>
    <v>       0.60485300       0.39514700       0.39514700 </v>
    <v>       0.39514700       0.60485300       0.39514700 </v>
   </varray>
  </structure>
  <varray name="forces" >
   <v>       0.00000000       0.00000000       0.00000000 </v>
   <v>       0.16916022       0.16916022       0.16916022 </v>
   <v>      -0.16916022      -0.16916022       0.16916022 </v>
   <v>       0.16916022      -0.16916022      -0.16916022 </v>
   <v>      -0.16916022       0.16916022      -0.16916022 </v>
  </varray>
  <varray name="stress" >
   <v>       1.55026015       0.00000000       0.00000000 </v>
   <v>       0.00000000       1.55026015       0.00000000 </v>
   <v>       0.00000000       0.00000000       1.55026015 </v>
  </varray>
  <energy>
   <i name="e_fr_energy">    -23.83887288 </i>
   <i name="e_wo_entrp">    -23.85046869 </i>
   <i name="e_0_energy">      0.03478743 </i>
  </energy>
  <time name="totalsc">    2.46    2.51</time>
  <eigenvalues>
   <array>
    <dimension dim="1">band</dimension>
    <dimension dim="2">kpoint</dimension>
    <dimension dim="3">spin</dimension>
    <field>eigene</field>
    <field>occ</field>
    <set>
     <set comment="spin 1">
      <set comment="kpoint 1">
       <r>  -16.3021    1.0000 </r>
       <r>   -8.6888    1.0000 </r>
       <r>   -8.6888    1.0000 </r>
       <r>   -8.6888    1.0000 </r>
       <r>   -0.6949    0.0000 </r>
       <r>    2.7521    0.0000 </r>
       <r>    2.7521    0.0000 </r>
       <r>    3.4293    0.0000 </r>
      </set>
     </set>
    </set>
   </array>
  </eigenvalues>
  <separator name="orbital magnetization" >
   <v name="MAGDIPOLOUT">      0.00000000      0.00000000      0.00000000</v>
  </separator>
  <dos>
   <i name="efermi">     -8.52046339 </i>
   <total>
    <array>
     <dimension dim="1">gridpoints</dimension>
     <dimension dim="2">spin</dimension>
     <field>energy</field>
     <field>total</field>
     <field>integrated</field>
     <set>
      <set comment="spin 1">
       <r>   -18.3021     0.0000     0.0000 </r>
       <r>   -18.2230     0.0000     0.0000 </r>
       <r>   -18.1439     0.0000     0.0000 </r>
       <r>   -18.0648     0.0000     0.0000 </r>
       <r>   -17.9857     0.0000     0.0000 </r>
       <r>   -17.9065     0.0000     0.0000 </r>
       <r>   -17.8274     0.0000     0.0000 </r>
       <r>   -17.7483     0.0000     0.0000 </r>
       <r>   -17.6692     0.0000     0.0000 </r>
       <r>   -17.5901     0.0000     0.0000 </r>
       <r>   -17.5110     0.0000     0.0000 </r>
       <r>   -17.4319     0.0000     0.0000 </r>
       <r>   -17.3528     0.0000     0.0000 </r>
       <r>   -17.2737     0.0000     0.0000 </r>
       <r>   -17.1946     0.0000     0.0000 </r>
       <r>   -17.1155     0.0000     0.0000 </r>
       <r>   -17.0364     0.0000     0.0000 </r>
       <r>   -16.9573    -0.0004     0.0000 </r>
       <r>   -16.8782    -0.0041    -0.0004 </r>
       <r>   -16.7991    -0.0268    -0.0025 </r>
       <r>   -16.7200    -0.1185    -0.0118 </r>
       <r>   -16.6409    -0.3258    -0.0376 </r>
       <r>   -16.5618    -0.4018    -0.0694 </r>
       <r>   -16.4827     0.5763    -0.0238 </r>
       <r>   -16.4036     3.4827     0.2517 </r>
       <r>   -16.3245     7.0817     0.8119 </r>
       <r>   -16.2453     8.1840     1.4593 </r>
       <r>   -16.1662     5.6314     1.9048 </r>
       <r>   -16.0871     1.9939     2.0625 </r>
       <r>   -16.0080    -0.0577     2.0579 </r>
       <r>   -15.9289    -0.4278     2.0241 </r>
       <r>   -15.8498    -0.2248     2.0063 </r>
       <r>   -15.7707    -0.0654     2.0011 </r>
       <r>   -15.6916    -0.0124     2.0001 </r>
       <r>   -15.6125    -0.0016     2.0000 </r>
       <r>   -15.5334    -0.0001     2.0000 </r>
       <r>   -15.4543     0.0000     2.0000 </r>
       <r>   -15.3752     0.0000     2.0000 </r>
       <r>   -15.2961     0.0000     2.0000 </r>
       <r>   -15.2170     0.0000     2.0000 </r>
       <r>   -15.1379     0.0000     2.0000 </r>
       <r>   -15.0588     0.0000     2.0000 </r>
       <r>   -14.9797     0.0000     2.0000 </r>
       <r>   -14.9006     0.0000     2.0000 </r>
       <r>   -14.8215     0.0000     2.0000 </r>
       <r>   -14.7424     0.0000     2.0000 </r>
       <r>   -14.6633     0.0000     2.0000 </r>
       <r>   -14.5841     0.0000     2.0000 </r>
       <r>   -14.5050     0.0000     2.0000 </r>
       <r>   -14.4259     0.0000     2.0000 </r>
       <r>   -14.3468     0.0000     2.0000 </r>
       <r>   -14.2677     0.0000     2.0000 </r>
       <r>   -14.1886     0.0000     2.0000 </r>
       <r>   -14.1095     0.0000     2.0000 </r>
       <r>   -14.0304     0.0000     2.0000 </r>
       <r>   -13.9513     0.0000     2.0000 </r>
       <r>   -13.8722     0.0000     2.0000 </r>
       <r>   -13.7931     0.0000     2.0000 </r>
       <r>   -13.7140     0.0000     2.0000 </r>
       <r>   -13.6349     0.0000     2.0000 </r>
       <r>   -13.5558     0.0000     2.0000 </r>
       <r>   -13.4767     0.0000     2.0000 </r>
       <r>   -13.3976     0.0000     2.0000 </r>
       <r>   -13.3185     0.0000     2.0000 </r>
       <r>   -13.2394     0.0000     2.0000 </r>
       <r>   -13.1603     0.0000     2.0000 </r>
       <r>   -13.0812     0.0000     2.0000 </r>
       <r>   -13.0021     0.0000     2.0000 </r>
       <r>   -12.9230     0.0000     2.0000 </r>
       <r>   -12.8438     0.0000     2.0000 </r>
       <r>   -12.7647     0.0000     2.0000 </r>
       <r>   -12.6856     0.0000     2.0000 </r>
       <r>   -12.6065     0.0000     2.0000 </r>
       <r>   -12.5274     0.0000     2.0000 </r>
       <r>   -12.4483     0.0000     2.0000 </r>
       <r>   -12.3692     0.0000     2.0000 </r>
       <r>   -12.2901     0.0000     2.0000 </r>
       <r>   -12.2110     0.0000     2.0000 </r>
       <r>   -12.1319     0.0000     2.0000 </r>
       <r>   -12.0528     0.0000     2.0000 </r>
       <r>   -11.9737     0.0000     2.0000 </r>
       <r>   -11.8946     0.0000     2.0000 </r>
       <r>   -11.8155     0.0000     2.0000 </r>
       <r>   -11.7364     0.0000     2.0000 </r>
       <r>   -11.6573     0.0000     2.0000 </r>
       <r>   -11.5782     0.0000     2.0000 </r>
       <r>   -11.4991     0.0000     2.0000 </r>
       <r>   -11.4200     0.0000     2.0000 </r>
       <r>   -11.3409     0.0000     2.0000 </r>
       <r>   -11.2618     0.0000     2.0000 </r>
       <r>   -11.1826     0.0000     2.0000 </r>
       <r>   -11.1035     0.0000     2.0000 </r>
       <r>   -11.0244     0.0000     2.0000 </r>
       <r>   -10.9453     0.0000     2.0000 </r>
       <r>   -10.8662     0.0000     2.0000 </r>
       <r>   -10.7871     0.0000     2.0000 </r>
       <r>   -10.7080     0.0000     2.0000 </r>
       <r>   -10.6289     0.0000     2.0000 </r>
       <r>   -10.5498     0.0000     2.0000 </r>
       <r>   -10.4707     0.0000     2.0000 </r>
       <r>   -10.3916     0.0000     2.0000 </r>
       <r>   -10.3125     0.0000     2.0000 </r>
       <r>   -10.2334     0.0000     2.0000 </r>
       <r>   -10.1543     0.0000     2.0000 </r>
       <r>   -10.0752     0.0000     2.0000 </r>
       <r>    -9.9961     0.0000     2.0000 </r>
       <r>    -9.9170     0.0000     2.0000 </r>
       <r>    -9.8379     0.0000     2.0000 </r>
       <r>    -9.7588     0.0000     2.0000 </r>
       <r>    -9.6797     0.0000     2.0000 </r>
       <r>    -9.6006     0.0000     2.0000 </r>
       <r>    -9.5215     0.0000     2.0000 </r>
       <r>    -9.4423     0.0000     2.0000 </r>
       <r>    -9.3632    -0.0007     1.9999 </r>
       <r>    -9.2841    -0.0073     1.9994 </r>
       <r>    -9.2050    -0.0526     1.9952 </r>
       <r>    -9.1259    -0.2577     1.9748 </r>
       <r>    -9.0468    -0.8059     1.9111 </r>
       <r>    -8.9677    -1.3010     1.8081 </r>
       <r>    -8.8886     0.5284     1.8499 </r>
       <r>    -8.8095     7.8503     2.4709 </r>
       <r>    -8.7304    18.9454     3.9696 </r>
       <r>    -8.6513    24.8418     5.9347 </r>
       <r>    -8.5722    19.4597     7.4741 </r>
       <r>    -8.4931     8.3763     8.1367 </r>
       <r>    -8.4140     0.7503     8.1960 </r>
       <r>    -8.3349    -1.2933     8.0937 </r>
       <r>    -8.2558    -0.8418     8.0271 </r>
       <r>    -8.1767    -0.2763     8.0053 </r>
       <r>    -8.0976    -0.0576     8.0007 </r>
       <r>    -8.0185    -0.0082     8.0001 </r>
       <r>    -7.9394    -0.0008     8.0000 </r>
       <r>    -7.8603    -0.0001     8.0000 </r>
       <r>    -7.7811     0.0000     8.0000 </r>
       <r>    -7.7020     0.0000     8.0000 </r>
       <r>    -7.6229     0.0000     8.0000 </r>
       <r>    -7.5438     0.0000     8.0000 </r>
       <r>    -7.4647     0.0000     8.0000 </r>
       <r>    -7.3856     0.0000     8.0000 </r>
       <r>    -7.3065     0.0000     8.0000 </r>
       <r>    -7.2274     0.0000     8.0000 </r>
       <r>    -7.1483     0.0000     8.0000 </r>
       <r>    -7.0692     0.0000     8.0000 </r>
       <r>    -6.9901     0.0000     8.0000 </r>
       <r>    -6.9110     0.0000     8.0000 </r>
       <r>    -6.8319     0.0000     8.0000 </r>
       <r>    -6.7528     0.0000     8.0000 </r>
       <r>    -6.6737     0.0000     8.0000 </r>
       <r>    -6.5946     0.0000     8.0000 </r>
       <r>    -6.5155     0.0000     8.0000 </r>
       <r>    -6.4364     0.0000     8.0000 </r>
       <r>    -6.3573     0.0000     8.0000 </r>
       <r>    -6.2782     0.0000     8.0000 </r>
       <r>    -6.1991     0.0000     8.0000 </r>
       <r>    -6.1199     0.0000     8.0000 </r>
       <r>    -6.0408     0.0000     8.0000 </r>
       <r>    -5.9617     0.0000     8.0000 </r>
       <r>    -5.8826     0.0000     8.0000 </r>
       <r>    -5.8035     0.0000     8.0000 </r>
       <r>    -5.7244     0.0000     8.0000 </r>
       <r>    -5.6453     0.0000     8.0000 </r>
       <r>    -5.5662     0.0000     8.0000 </r>
       <r>    -5.4871     0.0000     8.0000 </r>
       <r>    -5.4080     0.0000     8.0000 </r>
       <r>    -5.3289     0.0000     8.0000 </r>
       <r>    -5.2498     0.0000     8.0000 </r>
       <r>    -5.1707     0.0000     8.0000 </r>
       <r>    -5.0916     0.0000     8.0000 </r>
       <r>    -5.0125     0.0000     8.0000 </r>
       <r>    -4.9334     0.0000     8.0000 </r>
       <r>    -4.8543     0.0000     8.0000 </r>
       <r>    -4.7752     0.0000     8.0000 </r>
       <r>    -4.6961     0.0000     8.0000 </r>
       <r>    -4.6170     0.0000     8.0000 </r>
       <r>    -4.5379     0.0000     8.0000 </r>
       <r>    -4.4588     0.0000     8.0000 </r>
       <r>    -4.3796     0.0000     8.0000 </r>
       <r>    -4.3005     0.0000     8.0000 </r>
       <r>    -4.2214     0.0000     8.0000 </r>
       <r>    -4.1423     0.0000     8.0000 </r>
       <r>    -4.0632     0.0000     8.0000 </r>
       <r>    -3.9841     0.0000     8.0000 </r>
       <r>    -3.9050     0.0000     8.0000 </r>
       <r>    -3.8259     0.0000     8.0000 </r>
       <r>    -3.7468     0.0000     8.0000 </r>
       <r>    -3.6677     0.0000     8.0000 </r>
       <r>    -3.5886     0.0000     8.0000 </r>
       <r>    -3.5095     0.0000     8.0000 </r>
       <r>    -3.4304     0.0000     8.0000 </r>
       <r>    -3.3513     0.0000     8.0000 </r>
       <r>    -3.2722     0.0000     8.0000 </r>
       <r>    -3.1931     0.0000     8.0000 </r>
       <r>    -3.1140     0.0000     8.0000 </r>
       <r>    -3.0349     0.0000     8.0000 </r>
       <r>    -2.9558     0.0000     8.0000 </r>
       <r>    -2.8767     0.0000     8.0000 </r>
       <r>    -2.7976     0.0000     8.0000 </r>
       <r>    -2.7184     0.0000     8.0000 </r>
       <r>    -2.6393     0.0000     8.0000 </r>
       <r>    -2.5602     0.0000     8.0000 </r>
       <r>    -2.4811     0.0000     8.0000 </r>
       <r>    -2.4020     0.0000     8.0000 </r>
       <r>    -2.3229     0.0000     8.0000 </r>
       <r>    -2.2438     0.0000     8.0000 </r>
       <r>    -2.1647     0.0000     8.0000 </r>
       <r>    -2.0856     0.0000     8.0000 </r>
       <r>    -2.0065     0.0000     8.0000 </r>
       <r>    -1.9274     0.0000     8.0000 </r>
       <r>    -1.8483     0.0000     8.0000 </r>
       <r>    -1.7692     0.0000     8.0000 </r>
       <r>    -1.6901     0.0000     8.0000 </r>
       <r>    -1.6110     0.0000     8.0000 </r>
       <r>    -1.5319     0.0000     8.0000 </r>
       <r>    -1.4528     0.0000     8.0000 </r>
       <r>    -1.3737    -0.0002     8.0000 </r>
       <r>    -1.2946    -0.0022     7.9998 </r>
       <r>    -1.2155    -0.0159     7.9986 </r>
       <r>    -1.1364    -0.0795     7.9923 </r>
       <r>    -1.0573    -0.2556     7.9721 </r>
       <r>    -0.9781    -0.4344     7.9377 </r>
       <r>    -0.8990     0.1008     7.9457 </r>
       <r>    -0.8199     2.4290     8.1378 </r>
       <r>    -0.7408     6.1216     8.6221 </r>
       <r>    -0.6617     8.2682     9.2761 </r>
       <r>    -0.5826     6.6687     9.8036 </r>
       <r>    -0.5035     2.9887    10.0401 </r>
       <r>    -0.4244     0.3372    10.0667 </r>
       <r>    -0.3453    -0.4259    10.0330 </r>
       <r>    -0.2662    -0.2938    10.0098 </r>
       <r>    -0.1871    -0.0993    10.0019 </r>
       <r>    -0.1080    -0.0212    10.0003 </r>
       <r>    -0.0289    -0.0031    10.0000 </r>
       <r>     0.0502    -0.0003    10.0000 </r>
       <r>     0.1293     0.0000    10.0000 </r>
       <r>     0.2084     0.0000    10.0000 </r>
       <r>     0.2875     0.0000    10.0000 </r>
       <r>     0.3666     0.0000    10.0000 </r>
       <r>     0.4457     0.0000    10.0000 </r>
       <r>     0.5248     0.0000    10.0000 </r>
       <r>     0.6039     0.0000    10.0000 </r>
       <r>     0.6831     0.0000    10.0000 </r>
       <r>     0.7622     0.0000    10.0000 </r>
       <r>     0.8413     0.0000    10.0000 </r>
       <r>     0.9204     0.0000    10.0000 </r>
       <r>     0.9995     0.0000    10.0000 </r>
       <r>     1.0786     0.0000    10.0000 </r>
       <r>     1.1577     0.0000    10.0000 </r>
       <r>     1.2368     0.0000    10.0000 </r>
       <r>     1.3159     0.0000    10.0000 </r>
       <r>     1.3950     0.0000    10.0000 </r>
       <r>     1.4741     0.0000    10.0000 </r>
       <r>     1.5532     0.0000    10.0000 </r>
       <r>     1.6323     0.0000    10.0000 </r>
       <r>     1.7114     0.0000    10.0000 </r>
       <r>     1.7905     0.0000    10.0000 </r>
       <r>     1.8696     0.0000    10.0000 </r>
       <r>     1.9487     0.0000    10.0000 </r>
       <r>     2.0278    -0.0001    10.0000 </r>
       <r>     2.1069    -0.0012     9.9999 </r>
       <r>     2.1860    -0.0105     9.9991 </r>
       <r>     2.2651    -0.0661     9.9938 </r>
       <r>     2.3442    -0.2773     9.9719 </r>
       <r>     2.4234    -0.7093     9.9158 </r>
       <r>     2.5025    -0.7242     9.8585 </r>
       <r>     2.5816     1.6700     9.9906 </r>
       <r>     2.6607     7.9192    10.6170 </r>
       <r>     2.7398    14.8454    11.7914 </r>
       <r>     2.8189    16.0745    13.0630 </r>
       <r>     2.8980    10.2986    13.8776 </r>
       <r>     2.9771     3.1716    14.1285 </r>
       <r>     3.0562    -0.5770    14.0829 </r>
       <r>     3.1353    -1.2543    13.9836 </r>
       <r>     3.2144    -0.4527    13.9478 </r>
       <r>     3.2935     1.8856    14.0970 </r>
       <r>     3.3726     5.6119    14.5409 </r>
       <r>     3.4517     8.1816    15.1881 </r>
       <r>     3.5308     7.0815    15.7483 </r>
       <r>     3.6099     3.4827    16.0238 </r>
       <r>     3.6890     0.5763    16.0694 </r>
       <r>     3.7681    -0.4018    16.0376 </r>
       <r>     3.8472    -0.3258    16.0118 </r>
       <r>     3.9263    -0.1185    16.0025 </r>
       <r>     4.0054    -0.0268    16.0004 </r>
       <r>     4.0846    -0.0041    16.0000 </r>
       <r>     4.1637    -0.0004    16.0000 </r>
       <r>     4.2428     0.0000    16.0000 </r>
       <r>     4.3219     0.0000    16.0000 </r>
       <r>     4.4010     0.0000    16.0000 </r>
       <r>     4.4801     0.0000    16.0000 </r>
       <r>     4.5592     0.0000    16.0000 </r>
       <r>     4.6383     0.0000    16.0000 </r>
       <r>     4.7174     0.0000    16.0000 </r>
       <r>     4.7965     0.0000    16.0000 </r>
       <r>     4.8756     0.0000    16.0000 </r>
       <r>     4.9547     0.0000    16.0000 </r>
       <r>     5.0338     0.0000    16.0000 </r>
       <r>     5.1129     0.0000    16.0000 </r>
       <r>     5.1920     0.0000    16.0000 </r>
       <r>     5.2711     0.0000    16.0000 </r>
       <r>     5.3502     0.0000    16.0000 </r>
       <r>     5.4293     0.0000    16.0000 </r>
      </set>
     </set>
    </array>
   </total>
  </dos>
 </calculation>
 <structure name="finalpos" >
  <crystal>
   <varray name="basis" >
    <v>       6.00000000       0.00000000       0.00000000 </v>
    <v>       0.00000000       6.00000000       0.00000000 </v>
    <v>       0.00000000       0.00000000       6.00000000 </v>
   </varray>
   <i name="volume">    216.00000000 </i>
   <varray name="rec_basis" >
    <v>       0.16666667       0.00000000       0.00000000 </v>
    <v>       0.00000000       0.16666667       0.00000000 </v>
    <v>       0.00000000       0.00000000       0.16666667 </v>
   </varray>
  </crystal>
  <varray name="positions" >
   <v>       0.50000000       0.50000000       0.50000000 </v>
   <v>       0.60485300       0.60485300       0.60485300 </v>
   <v>       0.39514700       0.39514700       0.60485300 </v>
   <v>       0.60485300       0.39514700       0.39514700 </v>
   <v>       0.39514700       0.60485300       0.39514700 </v>
  </varray>
 </structure>
</modeling>
