    3    3   10    1
  0.1706667E+03  0.8000000E-09  0.8000000E-09  0.8000000E-09  0.5000000E-15
  1.000000000000000E-004
  CAR 
 unknown system                          
      8      1      8
 
  0.0000000E+00  0.0000000E+00  0.0000000E+00  0.1000000E+01
    1      -25.286016
    2      -12.961417
    3       -9.166074
    4       -7.075377
    5       -1.081745
    6        1.072785
    7        1.226431
    8        1.708992
