 vasp.5.3.5 31Mar14 (build Jan 09 2015 16:57:47) complex                        
  
 POSCAR found :  2 types and       3 ions
 LDA part: xc-table for Pade appr. of Perdew
 POSCAR found :  2 types and       3 ions
 POSCAR, INCAR and KPOINTS ok, starting setup
 WARNING: small aliasing (wrap around) errors must be expected
 FFT: planning ...
 WAVECAR not read
 entering main loop
       N       E                     dE             d eps       ncg     rms          rms(c)
DAV:   1     0.315484726896E+02    0.31548E+02   -0.19697E+03    24   0.337E+02
DAV:   2    -0.113400984111E+02   -0.42889E+02   -0.43323E+02    24   0.123E+02
DAV:   3    -0.151661329749E+02   -0.38260E+01   -0.38260E+01    16   0.356E+01
DAV:   4    -0.152025749657E+02   -0.36442E-01   -0.36442E-01    24   0.402E+00
DAV:   5    -0.152026390556E+02   -0.64090E-04   -0.64090E-04    32   0.137E-01    0.660E+00
DAV:   6    -0.138931039644E+02    0.13095E+01   -0.65223E+00    24   0.158E+01    0.346E+00
DAV:   7    -0.137775973592E+02    0.11551E+00   -0.43796E-02    32   0.234E+00    0.201E+00
DAV:   8    -0.137089516890E+02    0.68646E-01   -0.89309E-02    24   0.279E+00    0.218E-01
DAV:   9    -0.137152724055E+02   -0.63207E-02   -0.27209E-03    24   0.470E-01    0.874E-02
DAV:  10    -0.137235235499E+02   -0.82511E-02   -0.37363E-03    16   0.431E-01    0.554E-02
DAV:  11    -0.137289029461E+02   -0.53794E-02   -0.15527E-03    16   0.263E-01    0.290E-02
DAV:  12    -0.137306348428E+02   -0.17319E-02   -0.30500E-04    32   0.115E-01    0.154E-02
DAV:  13    -0.137321127278E+02   -0.14779E-02   -0.26841E-04    24   0.822E-02    0.738E-03
DAV:  14    -0.137323579329E+02   -0.24521E-03   -0.20110E-05    24   0.322E-02    0.385E-03
DAV:  15    -0.137324892910E+02   -0.13136E-03   -0.14943E-05    24   0.241E-02    0.252E-03
DAV:  16    -0.137324974386E+02   -0.81476E-05   -0.12821E-06    24   0.720E-03
   1 F= -.13732497E+02 E0= -.13736363E+02  d E =-.137325E+02
 BRION: g(F)=  0.166E+01 g(S)=  0.000E+00
 bond charge predicted
       N       E                     dE             d eps       ncg     rms          rms(c)
DAV:   1    -0.132239572842E+02    0.50853E+00   -0.15164E+02    16   0.123E+02    0.423E+00
DAV:   2    -0.131136790988E+02    0.11028E+00   -0.32560E+00    24   0.157E+01    0.232E+00
DAV:   3    -0.130459156620E+02    0.67763E-01   -0.10995E+00    16   0.793E+00    0.111E+00
DAV:   4    -0.130241346063E+02    0.21781E-01   -0.16309E-01    24   0.307E+00    0.453E-01
DAV:   5    -0.130292984520E+02   -0.51638E-02   -0.10254E-02    16   0.103E+00    0.533E-02
DAV:   6    -0.130302279379E+02   -0.92949E-03   -0.86113E-04    16   0.266E-01    0.234E-02
DAV:   7    -0.130307696124E+02   -0.54167E-03   -0.99372E-05    24   0.759E-02    0.124E-02
DAV:   8    -0.130313149615E+02   -0.54535E-03   -0.14004E-04    16   0.777E-02    0.138E-02
DAV:   9    -0.130315066211E+02   -0.19166E-03   -0.48905E-05    16   0.459E-02    0.390E-03
DAV:  10    -0.130315951509E+02   -0.88530E-04   -0.92889E-06    16   0.155E-02
   2 F= -.13031595E+02 E0= -.13035460E+02  d E =0.700902E+00
 BRION: g(F)=  0.159E+02 g(S)=  0.000E+00 retain N=  1 mean eig= 0.24
 eig:   0.241
 bond charge predicted
       N       E                     dE             d eps       ncg     rms          rms(c)
DAV:   1    -0.143657405317E+02   -0.13342E+01   -0.12674E+02    16   0.114E+02    0.494E+00
DAV:   2    -0.141427423193E+02    0.22300E+00   -0.52457E+00    24   0.180E+01    0.157E+00
DAV:   3    -0.141042013017E+02    0.38541E-01   -0.90636E-02    24   0.258E+00    0.852E-01
DAV:   4    -0.141010957369E+02    0.31056E-02   -0.58489E-02    24   0.248E+00    0.156E-01
DAV:   5    -0.141020128270E+02   -0.91709E-03   -0.97666E-03    16   0.864E-01    0.783E-02
DAV:   6    -0.141022471174E+02   -0.23429E-03   -0.33432E-04    24   0.132E-01    0.395E-02
DAV:   7    -0.141027781767E+02   -0.53106E-03   -0.10663E-04    16   0.816E-02    0.132E-02
DAV:   8    -0.141032509642E+02   -0.47279E-03   -0.16523E-04    24   0.764E-02    0.176E-02
DAV:   9    -0.141033669271E+02   -0.11596E-03   -0.66552E-05    24   0.516E-02    0.309E-03
DAV:  10    -0.141034358830E+02   -0.68956E-04   -0.71303E-06    24   0.152E-02
   3 F= -.14103436E+02 E0= -.14107301E+02  d E =-.107184E+01
 BRION: g(F)=  0.635E+00 g(S)=  0.000E+00 retain N=  1 mean eig= 0.20
 eig:   0.201
 bond charge predicted
       N       E                     dE             d eps       ncg     rms          rms(c)
DAV:   1    -0.142153065002E+02   -0.11194E+00   -0.11205E+00    16   0.996E+00    0.492E-01
DAV:   2    -0.142121407992E+02    0.31657E-02   -0.32714E-02    32   0.142E+00    0.211E-01
DAV:   3    -0.142118766163E+02    0.26418E-03   -0.15447E-03    24   0.339E-01    0.962E-02
DAV:   4    -0.142119743720E+02   -0.97756E-04   -0.37922E-04    24   0.181E-01
   4 F= -.14211974E+02 E0= -.14215840E+02  d E =-.108538E+00
 BRION: g(F)=  0.172E+00 g(S)=  0.000E+00 retain N=  1 mean eig= 0.44
 eig:   0.445
 bond charge predicted
       N       E                     dE             d eps       ncg     rms          rms(c)
DAV:   1    -0.142525249436E+02   -0.40648E-01   -0.10651E+00    16   0.922E+00    0.519E-01
DAV:   2    -0.142483034127E+02    0.42215E-02   -0.25451E-02    32   0.127E+00    0.242E-01
DAV:   3    -0.142481971444E+02    0.10627E-03   -0.27600E-03    24   0.421E-01    0.100E-01
DAV:   4    -0.142485126566E+02   -0.31551E-03   -0.94051E-04    24   0.231E-01    0.472E-02
DAV:   5    -0.142486266005E+02   -0.11394E-03   -0.36733E-04    32   0.135E-01    0.141E-02
DAV:   6    -0.142488056340E+02   -0.17903E-03   -0.35313E-05    16   0.458E-02    0.430E-03
DAV:   7    -0.142489088196E+02   -0.10319E-03   -0.16091E-05    32   0.262E-02    0.466E-03
DAV:   8    -0.142489827130E+02   -0.73893E-04   -0.81390E-06    16   0.166E-02
   5 F= -.14248983E+02 E0= -.14252848E+02  d E =-.370083E-01
 BRION: g(F)=  0.800E-02 g(S)=  0.000E+00 retain N=  1 mean eig= 0.38
 eig:   0.380
 bond charge predicted
       N       E                     dE             d eps       ncg     rms          rms(c)
DAV:   1    -0.142500729799E+02   -0.11642E-02   -0.12621E-01    16   0.361E+00    0.139E-01
DAV:   2    -0.142498762306E+02    0.19675E-03   -0.33789E-03    16   0.483E-01    0.467E-02
DAV:   3    -0.142498692733E+02    0.69573E-05   -0.10816E-04    24   0.854E-02
   6 F= -.14249869E+02 E0= -.14253735E+02  d E =-.886560E-03
 BRION: g(F)=  0.107E-02 g(S)=  0.000E+00 retain N=  1 mean eig= 0.26
 eig:   0.262
 bond charge predicted
       N       E                     dE             d eps       ncg     rms          rms(c)
DAV:   1    -0.142500565889E+02   -0.18036E-03   -0.45748E-03    24   0.667E-01    0.272E-02
DAV:   2    -0.142500526237E+02    0.39653E-05   -0.15705E-04    32   0.100E-01
   7 F= -.14250053E+02 E0= -.14253918E+02  d E =-.183350E-03
 BRION: g(F)=  0.823E-05 g(S)=  0.000E+00 retain N=  1 mean eig= 0.31
 eig:   0.315
 reached required accuracy - stopping structural energy minimisation
 writing wavefunctions
