unknown system                          
   1.00000000000000     
     2.530594    0.000000    0.000000
     1.265297    2.191558    0.000000
     1.265297    0.730519    2.066221
   Pd
     1
Direct
  0.000000  0.000000  0.000000
 
   24   24   24
  71.329      68.825      62.065      52.829      42.915      33.459      24.969      17.758      12.176      8.4354    
  6.3543      5.3523      5.0209      5.3523      6.3543      8.4354      12.176      17.758      24.969      33.459    
  42.915      52.829      62.065      68.825      68.825      64.201      56.260      46.815      37.305      28.492    
  20.758      14.453      9.8959      7.1160      5.7003      5.0555      5.0549      5.6998      7.1166      9.8964    
  14.453      20.758      28.493      37.305      46.815      56.260      64.202      68.825      62.065      56.260    
  48.222      39.425      30.850      23.037      16.386      11.284      7.9184      6.0650      5.1463      4.8403    
  5.1463      6.0649      7.9183      11.284      16.386      23.037      30.850      39.425      48.222      56.260    
  62.065      64.202      52.829      46.815      39.424      31.682      24.268      17.679      12.366      8.6332    
  6.4210      5.2669      4.7123      4.7126      5.2672      6.4207      8.6329      12.367      17.679      24.268    
  31.682      39.424      46.815      52.829      56.260      56.260      42.916      37.305      30.850      24.268    
  18.133      12.959      9.1269      6.7105      5.3835      4.6560      4.4159      4.6560      5.3835      6.7105    
  9.1269      12.959      18.133      24.268      30.850      37.305      42.916      46.815      48.222      46.815    
  33.459      28.492      23.037      17.679      12.959      9.3032      6.8740      5.4668      4.6422      4.2410    
  4.2410      4.6423      5.4668      6.8739      9.3032      12.959      17.679      23.037      28.492      33.459    
  37.305      39.424      39.424      37.305      24.968      20.758      16.386      12.367      9.1269      6.8739    
  5.4972      4.6437      4.1556      3.9996      4.1556      4.6437      5.4973      6.8739      9.1269      12.367    
  16.386      20.758      24.968      28.493      30.850      31.682      30.850      28.493      17.758      14.453    
  11.284      8.6332      6.7106      5.4666      4.6435      4.1310      3.8929      3.8927      4.1308      4.6437    
  5.4669      6.7105      8.6330      11.284      14.453      17.758      20.758      23.037      24.268      24.268    
  23.037      20.758      12.176      9.8961      7.9183      6.4209      5.3836      4.6422      4.1555      3.8929    
  3.8115      3.8929      4.1554      4.6422      5.3836      6.4209      7.9183      9.8962      12.176      14.453    
  16.386      17.679      18.133      17.679      16.386      14.453      8.4354      7.1163      6.0652      5.2670    
  4.6561      4.2410      3.9996      3.8928      3.8929      3.9997      4.2409      4.6559      5.2671      6.0653    
  7.1163      8.4353      9.8962      11.284      12.366      12.959      12.959      12.367      11.284      9.8961    
  6.3539      5.7001      5.1463      4.7124      4.4159      4.2410      4.1556      4.1308      4.1556      4.2410    
  4.4159      4.7124      5.1463      5.7001      6.3539      7.1163      7.9184      8.6331      9.1269      9.3032    
  9.1269      8.6331      7.9183      7.1163      5.3523      5.0552      4.8400      4.7124      4.6560      4.6423    
  4.6436      4.6436      4.6422      4.6560      4.7124      4.8400      5.0552      5.3523      5.7001      6.0653    
  6.4209      6.7106      6.8740      6.8739      6.7105      6.4209      6.0652      5.7001      5.0213      5.0552    
  5.1463      5.2670      5.3835      5.4668      5.4973      5.4668      5.3835      5.2670      5.1463      5.0552    
  5.0213      5.0552      5.1463      5.2670      5.3835      5.4668      5.4973      5.4668      5.3835      5.2670    
  5.1463      5.0552      5.3523      5.7001      6.0652      6.4209      6.7105      6.8739      6.8740      6.7106    
  6.4209      6.0653      5.7001      5.3523      5.0552      4.8400      4.7124      4.6560      4.6422      4.6436    
  4.6436      4.6423      4.6560      4.7124      4.8400      5.0552      6.3539      7.1163      7.9183      8.6331    
  9.1269      9.3032      9.1269      8.6331      7.9184      7.1163      6.3539      5.7001      5.1463      4.7124    
  4.4159      4.2410      4.1556      4.1308      4.1556      4.2410      4.4159      4.7124      5.1463      5.7001    
  8.4354      9.8961      11.284      12.367      12.959      12.959      12.366      11.284      9.8962      8.4353    
  7.1163      6.0653      5.2671      4.6559      4.2409      3.9997      3.8929      3.8928      3.9996      4.2410    
  4.6561      5.2670      6.0652      7.1163      12.176      14.453      16.386      17.679      18.133      17.679    
  16.386      14.453      12.176      9.8962      7.9183      6.4209      5.3836      4.6422      4.1554      3.8929    
  3.8115      3.8929      4.1555      4.6422      5.3836      6.4209      7.9183      9.8961      17.758      20.758    
  23.037      24.268      24.268      23.037      20.758      17.758      14.453      11.284      8.6330      6.7105    
  5.4669      4.6437      4.1308      3.8927      3.8929      4.1310      4.6435      5.4666      6.7106      8.6332    
  11.284      14.453      24.968      28.493      30.850      31.682      30.850      28.493      24.968      20.758    
  16.386      12.367      9.1269      6.8739      5.4973      4.6437      4.1556      3.9996      4.1556      4.6437    
  5.4972      6.8739      9.1269      12.367      16.386      20.758      33.459      37.305      39.424      39.424    
  37.305      33.459      28.492      23.037      17.679      12.959      9.3032      6.8739      5.4668      4.6423    
  4.2410      4.2410      4.6422      5.4668      6.8740      9.3032      12.959      17.679      23.037      28.492    
  42.916      46.815      48.222      46.815      42.916      37.305      30.850      24.268      18.133      12.959    
  9.1269      6.7105      5.3835      4.6560      4.4159      4.6560      5.3835      6.7105      9.1269      12.959    
  18.133      24.268      30.850      37.305      52.829      56.260      56.260      52.829      46.815      39.424    
  31.682      24.268      17.679      12.367      8.6329      6.4207      5.2672      4.7126      4.7123      5.2669    
  6.4210      8.6332      12.366      17.679      24.268      31.682      39.424      46.815      62.065      64.202    
  62.065      56.260      48.222      39.425      30.850      23.037      16.386      11.284      7.9183      6.0649    
  5.1463      4.8403      5.1463      6.0650      7.9184      11.284      16.386      23.037      30.850      39.425    
  48.222      56.260      68.825      68.825      64.202      56.260      46.815      37.305      28.493      20.758    
  14.453      9.8964      7.1166      5.6998      5.0549      5.0555      5.7003      7.1160      9.8959      14.453    
  20.758      28.492      37.305      46.815      56.260      64.201      68.825      64.201      56.260      46.815    
  37.305      28.492      20.758      14.453      9.8959      7.1160      5.7003      5.0555      5.0549      5.6998    
  7.1166      9.8964      14.453      20.758      28.493      37.305      46.815      56.260      64.202      68.825    
  64.201      58.049      49.585      40.408      31.557      23.557      16.766      11.542      8.0758      6.1586    
  5.2171      4.9040      5.2171      6.1585      8.0759      11.542      16.766      23.557      31.557      40.408    
  49.585      58.049      64.201      66.473      56.260      49.585      41.509      33.210      25.396      18.507    
  12.943      8.9954      6.6306      5.4078      4.8276      4.8279      5.4081      6.6303      8.9951      12.944    
  18.508      25.395      33.210      41.509      49.585      56.260      60.105      60.106      46.815      40.407    
  33.210      26.036      19.440      13.879      9.7168      7.0516      5.5910      4.8132      4.5544      4.8132    
  5.5910      7.0516      9.7168      13.879      19.440      26.036      33.210      40.407      46.815      51.351    
  53.003      51.351      37.305      31.558      25.395      19.440      14.207      10.113      7.3443      5.7373    
  4.8333      4.3897      4.3896      4.8332      5.7373      7.3443      10.113      14.207      19.440      25.395    
  31.558      37.305      41.864      44.419      44.419      41.864      28.492      23.557      18.508      13.879    
  10.113      7.4490      5.8199      4.8593      4.3062      4.1277      4.3062      4.8593      5.8199      7.4490    
  10.113      13.879      18.508      23.557      28.492      32.712      35.590      36.616      35.590      32.712    
  20.758      16.766      12.943      9.7171      7.3444      5.8199      4.8703      4.2740      3.9933      3.9932    
  4.2739      4.8705      5.8200      7.3442      9.7169      12.943      16.766      20.758      24.420      27.243    
  28.787      28.786      27.243      24.420      14.453      11.542      8.9951      7.0516      5.7374      4.8592    
  4.2738      3.9528      3.8526      3.9528      4.2738      4.8592      5.7374      7.0516      8.9952      11.542    
  14.453      17.356      19.833      21.504      22.095      21.504      19.833      17.356      9.8962      8.0759    
  6.6304      5.5908      4.8333      4.3062      3.9932      3.8524      3.8525      3.9933      4.3061      4.8331    
  5.5910      6.6306      8.0758      9.8961      11.899      13.794      15.274      16.086      16.086      15.275    
  13.794      11.899      7.1163      6.1589      5.4080      4.8132      4.3897      4.1278      3.9932      3.9528    
  3.9932      4.1278      4.3896      4.8132      5.4080      6.1590      7.1163      8.2637      9.4702      10.541    
  11.278      11.541      11.278      10.541      9.4702      8.2637      5.7001      5.2171      4.8278      4.5545    
  4.3897      4.3062      4.2740      4.2739      4.3061      4.3896      4.5545      4.8277      5.2171      5.7001    
  6.2517      6.8651      7.4723      7.9655      8.2426      8.2425      7.9655      7.4723      6.8651      6.2516    
  5.0552      4.9036      4.8277      4.8132      4.8333      4.8592      4.8704      4.8592      4.8332      4.8132    
  4.8277      4.9036      5.0552      5.2755      5.5360      5.7996      6.0375      6.2070      6.2686      6.2069    
  6.0374      5.7995      5.5359      5.2755      5.0552      5.2171      5.4079      5.5909      5.7373      5.8200    
  5.8199      5.7373      5.5909      5.4080      5.2171      5.0552      4.9519      4.9183      4.9440      5.0032    
  5.0647      5.1027      5.1026      5.0647      5.0032      4.9441      4.9183      4.9519      5.7001      6.1589    
  6.6305      7.0516      7.3443      7.4491      7.3443      7.0516      6.6305      6.1589      5.7001      5.2755    
  4.9183      4.6588      4.4987      4.4174      4.3851      4.3775      4.3851      4.4174      4.4988      4.6588    
  4.9183      5.2756      7.1163      8.0759      8.9952      9.7170      10.113      10.113      9.7169      8.9953    
  8.0759      7.1163      6.2516      5.5360      4.9441      4.4987      4.2065      4.0424      3.9718      3.9717    
  4.0424      4.2066      4.4988      4.9440      5.5359      6.2517      9.8963      11.542      12.943      13.879    
  14.207      13.879      12.943      11.542      9.8963      8.2638      6.8651      5.7996      5.0033      4.4173    
  4.0423      3.8437      3.7828      3.8437      4.0423      4.4174      5.0033      5.7996      6.8650      8.2637    
  14.453      16.766      18.507      19.440      19.440      18.508      16.766      14.453      11.899      9.4703    
  7.4722      6.0374      5.0648      4.3852      3.9717      3.7827      3.7829      3.9719      4.3850      5.0646    
  6.0375      7.4724      9.4702      11.899      20.758      23.558      25.395      26.036      25.395      23.558    
  20.758      17.356      13.794      10.541      7.9655      6.2068      5.1027      4.3776      3.9718      3.8435    
  3.9718      4.3776      5.1026      6.2068      7.9655      10.541      13.794      17.356      28.492      31.558    
  33.210      33.210      31.557      28.493      24.420      19.833      15.274      11.278      8.2426      6.2686    
  5.1026      4.3852      4.0424      4.0423      4.3850      5.1027      6.2687      8.2425      11.278      15.275    
  19.834      24.420      37.305      40.407      41.509      40.407      37.305      32.712      27.243      21.504    
  16.086      11.541      8.2425      6.2069      5.0647      4.4174      4.2066      4.4174      5.0647      6.2069    
  8.2425      11.541      16.086      21.504      27.243      32.711      46.815      49.585      49.585      46.815    
  41.864      35.590      28.786      22.094      16.086      11.278      7.9654      6.0374      5.0033      4.4988    
  4.4987      5.0031      6.0375      7.9656      11.278      16.086      22.095      28.786      35.590      41.864    
  56.260      58.050      56.260      51.351      44.419      36.616      28.786      21.504      15.275      10.541    
  7.4722      5.7993      4.9440      4.6590      4.9441      5.7994      7.4723      10.541      15.275      21.504    
  28.786      36.616      44.419      51.351      64.201      64.202      60.106      53.003      44.418      35.590    
  27.243      19.833      13.794      9.4704      6.8653      5.5357      4.9181      4.9185      5.5362      6.8649    
  9.4700      13.794      19.834      27.243      35.589      44.419      53.004      60.105      68.825      66.473    
  60.106      51.351      41.864      32.711      24.420      17.356      11.898      8.2637      6.2520      5.2755    
  4.9516      5.2755      6.2520      8.2637      11.898      17.356      24.420      32.711      41.864      51.351    
  60.106      66.473      62.065      56.260      48.222      39.425      30.850      23.037      16.386      11.284    
  7.9184      6.0650      5.1463      4.8403      5.1463      6.0649      7.9183      11.284      16.386      23.037    
  30.850      39.425      48.222      56.260      62.065      64.202      56.260      49.585      41.509      33.210    
  25.396      18.507      12.943      8.9954      6.6306      5.4078      4.8276      4.8279      5.4081      6.6303    
  8.9951      12.944      18.508      25.395      33.210      41.509      49.585      56.260      60.105      60.106    
  48.222      41.509      34.032      26.643      19.887      14.197      9.9232      7.1722      5.6633      4.8682    
  4.6029      4.8681      5.6633      7.1722      9.9231      14.197      19.887      26.643      34.032      41.509    
  48.222      53.003      54.750      53.003      39.424      33.210      26.643      20.363      14.867      10.547    
  7.6009      5.8828      4.9349      4.4694      4.4693      4.9348      5.8829      7.6010      10.547      14.866    
  20.364      26.643      33.210      39.424      44.419      47.242      47.242      44.419      30.850      25.395    
  19.887      14.866      10.766      7.8374      6.0346      4.9989      4.4048      4.2118      4.4048      4.9989    
  6.0346      7.8374      10.766      14.866      19.887      25.395      30.850      35.590      38.867      40.045    
  38.867      35.590      23.037      18.507      14.196      10.547      7.8375      6.0889      5.0370      4.3814    
  4.0695      4.0694      4.3813      5.0371      6.0891      7.8374      10.547      14.197      18.508      23.037    
  27.243      30.531      32.348      32.348      30.531      27.243      16.386      12.943      9.9232      7.6010    
  6.0347      5.0370      4.3763      4.0091      3.8936      4.0091      4.3763      5.0371      6.0347      7.6010    
  9.9232      12.943      16.386      19.834      22.804      24.826      25.544      24.826      22.804      19.834    
  11.284      8.9953      7.1721      5.8828      4.9990      4.3814      4.0090      3.8398      3.8400      4.0092    
  4.3813      4.9988      5.8829      7.1723      8.9952      11.284      13.794      16.175      18.044      19.074    
  19.074      18.044      16.175      13.794      7.9184      6.6306      5.6632      4.9348      4.4048      4.0696    
  3.8935      3.8398      3.8935      4.0695      4.4048      4.9348      5.6632      6.6306      7.9184      9.4702    
  11.099      12.543      13.540      13.896      13.540      12.543      11.099      9.4702      6.0652      5.4080    
  4.8682      4.4693      4.2118      4.0695      4.0091      4.0091      4.0694      4.2119      4.4693      4.8681    
  5.4079      6.0653      6.8652      7.7771      8.6815      9.4148      9.8261      9.8260      9.4147      8.6815    
  7.7772      6.8651      5.1463      4.8277      4.6031      4.4693      4.4048      4.3814      4.3764      4.3814    
  4.4048      4.4693      4.6030      4.8277      5.1463      5.5359      5.9622      6.4069      6.8138      7.1030    
  7.2079      7.1029      6.8137      6.4068      5.9622      5.5359      4.8400      4.8277      4.8681      4.9349    
  4.9989      5.0371      5.0370      4.9989      4.9349      4.8681      4.8277      4.8399      4.9183      5.0564    
  5.2291      5.4009      5.5398      5.6189      5.6189      5.5397      5.4009      5.2291      5.0564      4.9183    
  5.1463      5.4080      5.6631      5.8828      6.0346      6.0890      6.0346      5.8829      5.6632      5.4080    
  5.1463      4.9183      4.7546      4.6652      4.6386      4.6498      4.6707      4.6803      4.6707      4.6498    
  4.6387      4.6652      4.7546      4.9183      6.0652      6.6305      7.1722      7.6009      7.8374      7.8375    
  7.6010      7.1723      6.6305      6.0652      5.5359      5.0564      4.6652      4.3870      4.2161      4.1275    
  4.0924      4.0924      4.1275      4.2162      4.3871      4.6652      5.0564      5.5360      7.9184      8.9953    
  9.9232      10.547      10.766      10.547      9.9233      8.9953      7.9184      6.8651      5.9622      5.2291    
  4.6387      4.2162      3.9532      3.8173      3.7763      3.8173      3.9533      4.2162      4.6387      5.2291    
  5.9621      6.8651      11.284      12.943      14.196      14.866      14.867      14.197      12.943      11.284    
  9.4703      7.7772      6.4068      5.4008      4.6499      4.1276      3.8172      3.6775      3.6776      3.8174    
  4.1275      4.6498      5.4009      6.4069      7.7771      9.4701      16.386      18.508      19.887      20.363    
  19.887      18.508      16.386      13.794      11.099      8.6816      6.8138      5.5396      4.6707      4.0925    
  3.7762      3.6774      3.7762      4.0925      4.6707      5.5396      6.8137      8.6816      11.099      13.794    
  23.037      25.395      26.643      26.643      25.395      23.037      19.834      16.175      12.543      9.4148    
  7.1030      5.6188      4.6802      4.0925      3.8174      3.8172      4.0923      4.6803      5.6189      7.1028    
  9.4147      12.543      16.175      19.833      30.850      33.210      34.033      33.210      30.850      27.243    
  22.804      18.044      13.540      9.8261      7.2079      5.6189      4.6706      4.1275      3.9534      4.1275    
  4.6706      5.6188      7.2079      9.8261      13.540      18.044      22.804      27.243      39.424      41.509    
  41.509      39.424      35.590      30.531      24.826      19.074      13.896      9.8261      7.1029      5.5398    
  4.6498      4.2162      4.2162      4.6498      5.5397      7.1029      9.8261      13.896      19.074      24.826    
  30.531      35.590      48.222      49.585      48.222      44.419      38.867      32.348      25.544      19.074    
  13.540      9.4148      6.8137      5.4008      4.6387      4.3871      4.6387      5.4008      6.8137      9.4148    
  13.540      19.074      25.544      32.348      38.867      44.419      56.260      56.260      53.003      47.241    
  40.045      32.348      24.826      18.044      12.543      8.6816      6.4070      5.2290      4.6651      4.6653    
  5.2292      6.4067      8.6814      12.543      18.044      24.825      32.348      40.045      47.242      53.003    
  62.064      60.105      54.751      47.242      38.867      30.531      22.804      16.175      11.099      7.7771    
  5.9624      5.0564      4.7544      5.0564      5.9624      7.7771      11.099      16.175      22.804      30.531    
  38.867      47.242      54.751      60.105      64.201      60.105      53.004      44.419      35.589      27.243    
  19.834      13.794      9.4700      6.8649      5.5362      4.9185      4.9181      5.5357      6.8653      9.4704    
  13.794      19.833      27.243      35.590      44.418      53.003      60.106      64.202      52.829      46.815    
  39.424      31.682      24.268      17.679      12.366      8.6332      6.4210      5.2669      4.7123      4.7126    
  5.2672      6.4207      8.6329      12.367      17.679      24.268      31.682      39.424      46.815      52.829    
  56.260      56.260      46.815      40.407      33.210      26.036      19.440      13.879      9.7168      7.0516    
  5.5910      4.8132      4.5544      4.8132      5.5910      7.0516      9.7168      13.879      19.440      26.036    
  33.210      40.407      46.815      51.351      53.003      51.351      39.424      33.210      26.643      20.363    
  14.867      10.547      7.6009      5.8828      4.9349      4.4694      4.4693      4.9348      5.8829      7.6010    
  10.547      14.866      20.364      26.643      33.210      39.424      44.419      47.242      47.242      44.419    
  31.682      26.036      20.363      15.208      10.994      7.9743      6.1101      5.0471      4.4391      4.2412    
  4.4391      5.0472      6.1101      7.9743      10.994      15.208      20.364      26.036      31.682      36.616    
  40.045      41.281      40.045      36.616      24.268      19.440      14.866      10.994      8.1063      6.2353    
  5.1247      4.4388      4.1105      4.1104      4.4387      5.1248      6.2354      8.1062      10.994      14.866    
  19.440      24.268      28.786      32.348      34.328      34.328      32.348      28.786      17.679      13.879    
  10.547      7.9743      6.2354      5.1523      4.4451      4.0486      3.9233      4.0486      4.4451      5.1523    
  6.2354      7.9743      10.547      13.879      17.679      21.504      24.825      27.103      27.917      27.103    
  24.826      21.504      12.367      9.7171      7.6009      6.1100      5.1248      4.4453      4.0310      3.8415    
  3.8416      4.0312      4.4452      5.1247      6.1102      7.6011      9.7169      12.366      15.275      18.044    
  20.231      21.442      21.442      20.231      18.044      15.274      8.6331      7.0517      5.8828      5.0470    
  4.4387      4.0487      3.8415      3.7779      3.8415      4.0487      4.4387      5.0471      5.8829      7.0517    
  8.6331      10.540      12.543      14.323      15.557      15.998      15.557      14.323      12.543      10.540    
  6.4209      5.5909      4.9349      4.4391      4.1104      3.9233      3.8416      3.8415      3.9231      4.1105    
  4.4392      4.9349      5.5909      6.4209      7.4723      8.6815      9.8819      10.856      11.403      11.403    
  10.856      9.8820      8.6815      7.4722      5.2670      4.8132      4.4693      4.2412      4.1105      4.0486    
  4.0311      4.0486      4.1104      4.2411      4.4693      4.8132      5.2670      5.7995      6.4069      7.0579    
  7.6566      8.0821      8.2363      8.0820      7.6565      7.0579      6.4069      5.7996      4.7124      4.5545    
  4.4693      4.4391      4.4388      4.4452      4.4452      4.4387      4.4391      4.4693      4.5545      4.7124    
  4.9440      5.2291      5.5306      5.8175      6.0521      6.1858      6.1858      6.0520      5.8175      5.5306    
  5.2291      4.9441      4.7124      4.8133      4.9349      5.0471      5.1248      5.1524      5.1248      5.0471    
  4.9349      4.8133      4.7124      4.6588      4.6652      4.7258      4.8189      4.9146      4.9848      5.0104    
  4.9848      4.9146      4.8189      4.7259      4.6652      4.6588      5.2670      5.5909      5.8828      6.1101    
  6.2353      6.2353      6.1101      5.8829      5.5909      5.2670      4.9440      4.6652      4.4591      4.3320    
  4.2703      4.2498      4.2467      4.2467      4.2498      4.2703      4.3320      4.4591      4.6652      4.9440    
  6.4209      7.0516      7.6009      7.9743      8.1063      7.9743      7.6010      7.0516      6.4209      5.7995    
  5.2291      4.7258      4.3320      4.0614      3.8996      3.8192      3.7957      3.8193      3.8997      4.0614    
  4.3320      4.7258      5.2291      5.7995      8.6331      9.7170      10.547      10.994      10.994      10.547    
  9.7169      8.6330      7.4723      6.4069      5.5306      4.8188      4.2703      3.8997      3.6841      3.5885    
  3.5886      3.6843      3.8996      4.2702      4.8189      5.5306      6.4068      7.4722      12.366      13.879    
  14.866      15.208      14.866      13.879      12.366      10.540      8.6815      7.0580      5.8175      4.9145    
  4.2498      3.8194      3.5886      3.5172      3.5886      3.8194      4.2498      4.9145      5.8175      7.0580    
  8.6815      10.540      17.679      19.440      20.364      20.363      19.440      17.679      15.275      12.543    
  9.8819      7.6567      6.0522      4.9847      4.2466      3.7957      3.5887      3.5885      3.7955      4.2468    
  4.9849      6.0520      7.6565      9.8820      12.543      15.274      24.268      26.036      26.643      26.036    
  24.268      21.504      18.044      14.323      10.856      8.0821      6.1859      5.0104      4.2466      3.8193    
  3.6843      3.8193      4.2466      5.0104      6.1859      8.0821      10.856      14.323      18.044      21.504    
  31.682      33.210      33.210      31.682      28.786      24.826      20.231      15.557      11.403      8.2363    
  6.1858      4.9849      4.2498      3.8996      3.8997      4.2499      4.9847      6.1857      8.2364      11.403    
  15.557      20.231      24.826      28.787      39.424      40.407      39.424      36.616      32.348      27.103    
  21.442      15.998      11.403      8.0820      6.0521      4.9146      4.2703      4.0614      4.2703      4.9146    
  6.0521      8.0820      11.403      15.998      21.442      27.103      32.348      36.616      46.815      46.815    
  44.419      40.045      34.328      27.917      21.442      15.557      10.856      7.6566      5.8175      4.8189    
  4.3320      4.3320      4.8189      5.8174      7.6565      10.856      15.557      21.442      27.917      34.328    
  40.045      44.419      52.829      51.351      47.242      41.281      34.328      27.104      20.231      14.323    
  9.8818      7.0579      5.5307      4.7258      4.4590      4.7258      5.5307      7.0579      9.8818      14.323    
  20.231      27.104      34.328      41.281      47.242      51.351      56.260      53.003      47.242      40.045    
  32.348      24.825      18.044      12.543      8.6814      6.4067      5.2292      4.6653      4.6651      5.2290    
  6.4070      8.6816      12.543      18.044      24.826      32.348      40.045      47.241      53.003      56.260    
  56.260      51.351      44.419      36.616      28.786      21.504      15.275      10.541      7.4723      5.7994    
  4.9441      4.6590      4.9440      5.7993      7.4722      10.541      15.275      21.504      28.786      36.616    
  44.419      51.351      56.260      58.050      42.916      37.305      30.850      24.268      18.133      12.959    
  9.1269      6.7105      5.3835      4.6560      4.4159      4.6560      5.3835      6.7105      9.1269      12.959    
  18.133      24.268      30.850      37.305      42.916      46.815      48.222      46.815      37.305      31.558    
  25.395      19.440      14.207      10.113      7.3443      5.7373      4.8333      4.3897      4.3896      4.8332    
  5.7373      7.3443      10.113      14.207      19.440      25.395      31.558      37.305      41.864      44.419    
  44.419      41.864      30.850      25.395      19.887      14.866      10.766      7.8374      6.0346      4.9989    
  4.4048      4.2118      4.4048      4.9989      6.0346      7.8374      10.766      14.866      19.887      25.395    
  30.850      35.590      38.867      40.045      38.867      35.590      24.268      19.440      14.866      10.994    
  8.1063      6.2353      5.1247      4.4388      4.1105      4.1104      4.4387      5.1248      6.2354      8.1062    
  10.994      14.866      19.440      24.268      28.786      32.348      34.328      34.328      32.348      28.786    
  18.133      14.207      10.766      8.1063      6.3064      5.1921      4.4693      4.0627      3.9341      4.0627    
  4.4693      5.1921      6.3064      8.1063      10.766      14.207      18.133      22.094      25.544      27.917    
  28.765      27.917      25.544      22.094      12.959      10.113      7.8374      6.2352      5.1921      4.4815    
  4.0457      3.8456      3.8458      4.0459      4.4813      5.1920      6.2354      7.8376      10.112      12.959    
  16.086      19.074      21.442      22.757      22.758      21.442      19.074      16.086      9.1269      7.3444    