unknown system                          
   1.00000000000000     
     2.530594    0.000000    0.000000
     1.265297    2.191558    0.000000
     1.265297    0.730519    2.066221
   Pd
     1
Direct
  0.000000  0.000000  0.000000
 
   24   24   24
 0.71329061077E+02 0.68824866955E+02 0.62065081935E+02 0.52828633858E+02 0.42915225651E+02
 0.33458851536E+02 0.24968542835E+02 0.17758381020E+02 0.12175844558E+02 0.84353684374E+01
 0.63542723294E+01 0.53522998797E+01 0.50208981053E+01 0.53522998797E+01 0.63542723294E+01
 0.84353684374E+01 0.12175844558E+02 0.17758381020E+02 0.24968542835E+02 0.33458851536E+02
 0.42915225651E+02 0.52828633858E+02 0.62065081935E+02 0.68824866955E+02 0.68824606096E+02
 0.64201118679E+02 0.56260224621E+02 0.46815379592E+02 0.37304664932E+02 0.28492167648E+02
 0.20758456083E+02 0.14453060241E+02 0.98958763235E+01 0.71160309228E+01 0.57003442126E+01
 0.50554764842E+01 0.50549486618E+01 0.56998143298E+01 0.71165608163E+01 0.98964272208E+01
 0.14452566018E+02 0.20757935493E+02 0.28492670933E+02 0.37305180371E+02 0.46814878653E+02
 0.56259728715E+02 0.64201651074E+02 0.68825128725E+02 0.62064686010E+02 0.56259669668E+02
 0.48222183081E+02 0.39424526645E+02 0.30850256059E+02 0.23036563915E+02 0.16385729372E+02
 0.11283940946E+02 0.79183621801E+01 0.60649554956E+01 0.51463153086E+01 0.48402749930E+01
 0.51463051674E+01 0.60649389865E+01 0.79183453365E+01 0.11283930698E+02 0.16385731124E+02
 0.23036580629E+02 0.30850286463E+02 0.39424565539E+02 0.48222223386E+02 0.56259702395E+02
 0.62064704240E+02 0.64201684308E+02 0.52828767077E+02 0.46814985513E+02 0.39424099332E+02
 0.31681878037E+02 0.24267836596E+02 0.17678689566E+02 0.12366355041E+02 0.86332205826E+01
 0.64210303170E+01 0.52669186266E+01 0.47123146597E+01 0.47125758026E+01 0.52671633598E+01
 0.64207229706E+01 0.86329083604E+01 0.12366592889E+02 0.17678955979E+02 0.24267601869E+02
 0.31681673131E+02 0.39424440940E+02 0.46815312837E+02 0.52828530368E+02 0.56259863270E+02
 0.56260122794E+02 0.42915696367E+02 0.37304925792E+02 0.30850181267E+02 0.24267703377E+02
 0.18133264832E+02 0.12958736441E+02 0.91268730753E+01 0.67105355356E+01 0.53835282815E+01
 0.46559981987E+01 0.44158570251E+01 0.46560005193E+01 0.53835274593E+01 0.67105251902E+01
 0.91268522889E+01 0.12958713024E+02 0.18133253720E+02 0.24267717696E+02 0.30850225678E+02
 0.37304991105E+02 0.42915760675E+02 0.46815179618E+02 0.48222148594E+02 0.46815139513E+02
 0.33458834651E+02 0.28492411622E+02 0.23036874895E+02 0.17678839671E+02 0.12958719555E+02
 0.93031916941E+01 0.68739587089E+01 0.54667501797E+01 0.46421878349E+01 0.42409508080E+01
 0.42410086099E+01 0.46422736013E+01 0.54667547068E+01 0.68739285993E+01 0.93032100047E+01
 0.12958742365E+02 0.17678800169E+02 0.23036830904E+02 0.28492448114E+02 0.33458913123E+02
 0.37304974220E+02 0.39424290835E+02 0.39424288331E+02 0.37304936398E+02 0.24968146910E+02
 0.20758104606E+02 0.16385729372E+02 0.12366578878E+02 0.91269478669E+01 0.68738512058E+01
 0.54972343358E+01 0.46437016302E+01 0.41555593450E+01 0.39995692480E+01 0.41555803063E+01
 0.46437339535E+01 0.54972644205E+01 0.68738679078E+01 0.91269497205E+01 0.12366571195E+02
 0.16385724370E+02 0.20758110315E+02 0.24968163928E+02 0.28492521846E+02 0.30850300469E+02
 0.31681715733E+02 0.30850286463E+02 0.28492500690E+02 0.17758464492E+02 0.14452715910E+02
 0.11283563381E+02 0.86331708347E+01 0.67106190072E+01 0.54666498225E+01 0.46435275413E+01
 0.41309945769E+01 0.38929385140E+01 0.38927464673E+01 0.41307918668E+01 0.46437073266E+01
 0.54668689855E+01 0.67104843386E+01 0.86329973896E+01 0.11283724549E+02 0.14452910003E+02
 0.17758334532E+02 0.20758117461E+02 0.23036931262E+02 0.24267801168E+02 0.24267651617E+02
 0.23036791252E+02 0.20758279825E+02 0.12176349809E+02 0.98961371831E+01 0.79182528535E+01
 0.64208970976E+01 0.53835628164E+01 0.46422047206E+01 0.41554500185E+01 0.38928550424E+01
 0.38115427232E+01 0.38928526348E+01 0.41554496214E+01 0.46422111221E+01 0.53835805709E+01
 0.64209225153E+01 0.79182810843E+01 0.98961597938E+01 0.12176360644E+02 0.14452826532E+02
 0.16385615044E+02 0.17678817055E+02 0.18133288255E+02 0.17678822760E+02 0.16385621798E+02
 0.14452826877E+02 0.84354223443E+01 0.71163456893E+01 0.60651956824E+01 0.52669979391E+01
 0.46560521057E+01 0.42410216006E+01 0.39996059584E+01 0.38927760320E+01 0.38929065417E+01
 0.39997442695E+01 0.42409006450E+01 0.46559001143E+01 0.52670933019E+01 0.60653426564E+01
 0.71162854462E+01 0.84353311363E+01 0.98962137007E+01 0.11283694984E+02 0.12366426671E+02
 0.12958671572E+02 0.12958766931E+02 0.12366513577E+02 0.11283582697E+02 0.98961124543E+01
 0.63538764045E+01 0.57001185821E+01 0.51463153086E+01 0.47124126501E+01 0.44159318167E+01
 0.42410269532E+01 0.41555803063E+01 0.41308401093E+01 0.41555589479E+01 0.42409897810E+01
 0.44158897375E+01 0.47123762056E+01 0.51462946351E+01 0.57001216536E+01 0.63539000914E+01
 0.71163041241E+01 0.79183904109E+01 0.86331160902E+01 0.91269497205E+01 0.93031578899E+01
 0.91269270806E+01 0.86330768089E+01 0.79183453365E+01 0.71162647277E+01 0.53522980024E+01
 0.50552175019E+01 0.48399827766E+01 0.47124407060E+01 0.46559986421E+01 0.46422585929E+01
 0.46436452134E+01 0.46436219778E+01 0.46422092449E+01 0.46559558984E+01 0.47124133119E+01
 0.48399545497E+01 0.50551798141E+01 0.53522738446E+01 0.57000883018E+01 0.60652868723E+01
 0.64209206381E+01 0.67105696874E+01 0.68739604024E+01 0.68739436077E+01 0.67105233129E+01
 0.64208580673E+01 0.60652349574E+01 0.57000733121E+01 0.50213036697E+01 0.50552095213E+01
 0.51462955279E+01 0.52670301403E+01 0.53834623071E+01 0.54667715925E+01 0.54972547811E+01
 0.54667855139E+01 0.53834808838E+01 0.52670393950E+01 0.51462849956E+01 0.50551816913E+01
 0.50212693955E+01 0.50551816913E+01 0.51462849956E+01 0.52670393950E+01 0.53834808838E+01
 0.54667855139E+01 0.54972547811E+01 0.54667715925E+01 0.53834623071E+01 0.52670301403E+01
 0.51462955279E+01 0.50552095213E+01 0.53522980024E+01 0.57000733121E+01 0.60652349574E+01
 0.64208580673E+01 0.67105233129E+01 0.68739436077E+01 0.68739604024E+01 0.67105696874E+01
 0.64209206381E+01 0.60652868723E+01 0.57000883018E+01 0.53522738446E+01 0.50551798141E+01
 0.48399545497E+01 0.47124133119E+01 0.46559558984E+01 0.46422092449E+01 0.46436219778E+01
 0.46436452134E+01 0.46422585929E+01 0.46559986421E+01 0.47124407060E+01 0.48399827766E+01
 0.50552175019E+01 0.63538764045E+01 0.71162647277E+01 0.79183453365E+01 0.86330768089E+01
 0.91269270806E+01 0.93031578899E+01 0.91269497205E+01 0.86331160902E+01 0.79183904109E+01
 0.71163041241E+01 0.63539000914E+01 0.57001216536E+01 0.51462946351E+01 0.47123762056E+01
 0.44158897375E+01 0.42409897810E+01 0.41555589479E+01 0.41308401093E+01 0.41555803063E+01
 0.42410269532E+01 0.44159318167E+01 0.47124126501E+01 0.51463153086E+01 0.57001185821E+01
 0.84354223443E+01 0.98961124543E+01 0.11283582697E+02 0.12366513577E+02 0.12958766931E+02
 0.12958671572E+02 0.12366426671E+02 0.11283694984E+02 0.98962137007E+01 0.84353311363E+01
 0.71162854462E+01 0.60653426564E+01 0.52670933019E+01 0.46559001143E+01 0.42409006450E+01
 0.39997442695E+01 0.38929065417E+01 0.38927760320E+01 0.39996059584E+01 0.42410216006E+01
 0.46560521057E+01 0.52669979391E+01 0.60651956824E+01 0.71163456893E+01 0.12176349809E+02
 0.14452826877E+02 0.16385621798E+02 0.17678822760E+02 0.18133288255E+02 0.17678817055E+02
 0.16385615044E+02 0.14452826532E+02 0.12176360644E+02 0.98961597938E+01 0.79182810843E+01
 0.64209225153E+01 0.53835805709E+01 0.46422111221E+01 0.41554496214E+01 0.38928526348E+01
 0.38115427232E+01 0.38928550424E+01 0.41554500185E+01 0.46422047206E+01 0.53835628164E+01
 0.64208970976E+01 0.79182528535E+01 0.98961371831E+01 0.17758464492E+02 0.20758279825E+02
 0.23036791252E+02 0.24267651617E+02 0.24267801168E+02 0.23036931262E+02 0.20758117461E+02
 0.17758334532E+02 0.14452910003E+02 0.11283724549E+02 0.86329973896E+01 0.67104843386E+01
 0.54668689855E+01 0.46437073266E+01 0.41307918668E+01 0.38927464673E+01 0.38929385140E+01
 0.41309945769E+01 0.46435275413E+01 0.54666498225E+01 0.67106190072E+01 0.86331708347E+01
 0.11283563381E+02 0.14452715910E+02 0.24968146910E+02 0.28492500690E+02 0.30850286463E+02
 0.31681715733E+02 0.30850300469E+02 0.28492521846E+02 0.24968163928E+02 0.20758110315E+02
 0.16385724370E+02 0.12366571195E+02 0.91269497205E+01 0.68738679078E+01 0.54972644205E+01
 0.46437339535E+01 0.41555803063E+01 0.39995692480E+01 0.41555593450E+01 0.46437016302E+01
 0.54972343358E+01 0.68738512058E+01 0.91269478669E+01 0.12366578878E+02 0.16385729372E+02
 0.20758104606E+02 0.33458834651E+02 0.37304936398E+02 0.39424288331E+02 0.39424290835E+02
 0.37304974220E+02 0.33458913123E+02 0.28492448114E+02 0.23036830904E+02 0.17678800169E+02
 0.12958742365E+02 0.93032100047E+01 0.68739285993E+01 0.54667547068E+01 0.46422736013E+01
 0.42410086099E+01 0.42409508080E+01 0.46421878349E+01 0.54667501797E+01 0.68739587089E+01
 0.93031916941E+01 0.12958719555E+02 0.17678839671E+02 0.23036874895E+02 0.28492411622E+02
 0.42915696367E+02 0.46815139513E+02 0.48222148594E+02 0.46815179618E+02 0.42915760675E+02
 0.37304991105E+02 0.30850225678E+02 0.24267717696E+02 0.18133253720E+02 0.12958713024E+02
 0.91268522889E+01 0.67105251902E+01 0.53835274593E+01 0.46560005193E+01 0.44158570251E+01
 0.46559981987E+01 0.53835282815E+01 0.67105355356E+01 0.91268730753E+01 0.12958736441E+02
 0.18133264832E+02 0.24267703377E+02 0.30850181267E+02 0.37304925792E+02 0.52828767077E+02
 0.56260122794E+02 0.56259863270E+02 0.52828530368E+02 0.46815312837E+02 0.39424440940E+02
 0.31681673131E+02 0.24267601869E+02 0.17678955979E+02 0.12366592889E+02 0.86329083604E+01
 0.64207229706E+01 0.52671633598E+01 0.47125758026E+01 0.47123146597E+01 0.52669186266E+01
 0.64210303170E+01 0.86332205826E+01 0.12366355041E+02 0.17678689566E+02 0.24267836596E+02
 0.31681878037E+02 0.39424099332E+02 0.46814985513E+02 0.62064686010E+02 0.64201684308E+02
 0.62064704240E+02 0.56259702395E+02 0.48222223386E+02 0.39424565539E+02 0.30850286463E+02
 0.23036580629E+02 0.16385731124E+02 0.11283930698E+02 0.79183453365E+01 0.60649389865E+01
 0.51463051674E+01 0.48402749930E+01 0.51463153086E+01 0.60649554956E+01 0.79183621801E+01
 0.11283940946E+02 0.16385729372E+02 0.23036563915E+02 0.30850256059E+02 0.39424526645E+02
 0.48222183081E+02 0.56259669668E+02 0.68824606096E+02 0.68825128725E+02 0.64201651074E+02
 0.56259728715E+02 0.46814878653E+02 0.37305180371E+02 0.28492670933E+02 0.20757935493E+02
 0.14452566018E+02 0.98964272208E+01 0.71165608163E+01 0.56998143298E+01 0.50549486618E+01
 0.50554764842E+01 0.57003442126E+01 0.71160309228E+01 0.98958763235E+01 0.14453060241E+02
 0.20758456083E+02 0.28492167648E+02 0.37304664932E+02 0.46815379592E+02 0.56260224621E+02
 0.64201118679E+02 0.68824606096E+02 0.64201118679E+02 0.56260224621E+02 0.46815379592E+02
 0.37304664932E+02 0.28492167648E+02 0.20758456083E+02 0.14453060241E+02 0.98958763235E+01
 0.71160309228E+01 0.57003442126E+01 0.50554764842E+01 0.50549486618E+01 0.56998143298E+01
 0.71165608163E+01 0.98964272208E+01 0.14452566018E+02 0.20757935493E+02 0.28492670933E+02
 0.37305180371E+02 0.46814878653E+02 0.56259728715E+02 0.64201651074E+02 0.68825128725E+02
 0.64201372253E+02 0.58049171663E+02 0.49585017813E+02 0.40407567365E+02 0.31557491509E+02
 0.23557202704E+02 0.16765768398E+02 0.11542206772E+02 0.80758389200E+01 0.61585571484E+01
 0.52171362008E+01 0.49039728557E+01 0.52170952690E+01 0.61585480547E+01 0.80758936843E+01
 0.11542269816E+02 0.16765777966E+02 0.23557171612E+02 0.31557472964E+02 0.40407587311E+02
 0.49585062143E+02 0.58049215600E+02 0.64201399391E+02 0.66473097582E+02 0.56260134226E+02
 0.49584839188E+02 0.41508990368E+02 0.33210325271E+02 0.25395517304E+02 0.18507373203E+02
 0.12943159605E+02 0.89954335595E+01 0.66306468812E+01 0.54078010410E+01 0.48275706432E+01
 0.48278998452E+01 0.54081164644E+01 0.66302901818E+01 0.89951003620E+01 0.12943516241E+02
 0.18507712908E+02 0.25395169490E+02 0.33210011787E+02 0.41509401008E+02 0.49585251380E+02
 0.56259829233E+02 0.60105204579E+02 0.60105538246E+02 0.46815261775E+02 0.40407238692E+02
 0.33210009822E+02 0.26035725997E+02 0.19440031047E+02 0.13879277312E+02 0.97168421637E+01
 0.70516246105E+01 0.55910406783E+01 0.48132424330E+01 0.45543799932E+01 0.48132403262E+01
 0.55910132652E+01 0.70515740563E+01 0.97168014762E+01 0.13879267561E+02 0.19440045471E+02
 0.26035762635E+02 0.33210075471E+02 0.40407317998E+02 0.46815321841E+02 0.51351032144E+02
 0.53003197614E+02 0.51351006130E+02 0.37304950223E+02 0.31557517856E+02 0.25395320636E+02
 0.19439867604E+02 0.14207396889E+02 0.10112618980E+02 0.73442683892E+01 0.57372514344E+01
 0.48332678534E+01 0.43896790782E+01 0.43896373641E+01 0.48332270085E+01 0.57372880398E+01
 0.73442877616E+01 0.10112544481E+02 0.14207340244E+02 0.19439924232E+02 0.25395391063E+02
 0.31557511346E+02 0.37304962255E+02 0.41864081197E+02 0.44418684989E+02 0.44418611376E+02
 0.41863973752E+02 0.28492425531E+02 0.23557478061E+02 0.18507547242E+02 0.13879331160E+02
 0.10112598128E+02 0.74490329712E+01 0.58199184664E+01 0.48592568853E+01 0.43061536953E+01
 0.41276858018E+01 0.43061697156E+01 0.48592826512E+01 0.58199412019E+01 0.74490408718E+01
 0.10112588409E+02 0.13879313954E+02 0.18507536990E+02 0.23557483650E+02 0.28492446957E+02
 0.32711554415E+02 0.35589665969E+02 0.36616210323E+02 0.35589645814E+02 0.32711526289E+02
 0.20758269862E+02 0.16765695408E+02 0.12943257993E+02 0.97170549487E+01 0.73443703243E+01
 0.58198510502E+01 0.48702948423E+01 0.42740128627E+01 0.39932981257E+01 0.39931514361E+01
 0.42738703509E+01 0.48704579252E+01 0.58200213768E+01 0.73442387845E+01 0.97169091258E+01
 0.12943408550E+02 0.16765865135E+02 0.20758143144E+02 0.24419982601E+02 0.27242914103E+02
 0.28786503698E+02 0.28786386143E+02 0.27242820225E+02 0.24420149305E+02 0.14452920786E+02
 0.11541886058E+02 0.89951451073E+01 0.70516219573E+01 0.57373935098E+01 0.48592118503E+01
 0.42738278208E+01 0.39528484413E+01 0.38525793561E+01 0.39528382894E+01 0.42738144409E+01
 0.48592039989E+01 0.57373973767E+01 0.70516423575E+01 0.89951873262E+01 0.11541939550E+02
 0.14452955196E+02 0.17355632781E+02 0.19833378564E+02 0.21504180309E+02 0.22094568591E+02
 0.21504239880E+02 0.19833443634E+02 0.17355650236E+02 0.98962048576E+01 0.80759157011E+01
 0.66304128864E+01 0.55908327703E+01 0.48333110972E+01 0.43062251512E+01 0.39931594379E+01
 0.38523932912E+01 0.38525377911E+01 0.39933057401E+01 0.43060760778E+01 0.48331456262E+01
 0.55909627832E+01 0.66305903637E+01 0.80758460086E+01 0.98961090599E+01 0.11898906573E+02
 0.13794301946E+02 0.15274465464E+02 0.16086074420E+02 0.16086218080E+02 0.15274626542E+02
 0.13794197959E+02 0.11898778404E+02 0.71162860056E+01 0.61589439999E+01 0.54079814362E+01
 0.48131887982E+01 0.43896559316E+01 0.41277972956E+01 0.39932252667E+01 0.39527761160E+01
 0.39932321864E+01 0.41278003591E+01 0.43896388687E+01 0.48131513830E+01 0.54079602294E+01
 0.61589666192E+01 0.71163339830E+01 0.82637037970E+01 0.94702280937E+01 0.10540574795E+02
 0.11278253194E+02 0.11541277957E+02 0.11278244130E+02 0.10540570108E+02 0.94702212339E+01
 0.82636712739E+01 0.57000696753E+01 0.52171465852E+01 0.48277573280E+01 0.45545098890E+01
 0.43896518320E+01 0.43061860682E+01 0.42739586471E+01 0.42739165359E+01 0.43061272736E+01
 0.43896487342E+01 0.45545082628E+01 0.48276909922E+01 0.52170819258E+01 0.57000931645E+01
 0.62516748684E+01 0.68651464761E+01 0.74722727852E+01 0.79655260444E+01 0.82425574703E+01
 0.82425276948E+01 0.79654810470E+01 0.74722543842E+01 0.68651125955E+01 0.62516071426E+01
 0.50552277143E+01 0.49036487530E+01 0.48277182951E+01 0.48132388027E+01 0.48332602446E+01
 0.48592347767E+01 0.48703800640E+01 0.48592051286E+01 0.48332226822E+01 0.48132104128E+01
 0.48276957632E+01 0.49036170889E+01 0.50551886778E+01 0.52755280824E+01 0.55359589310E+01
 0.57995881485E+01 0.60374961592E+01 0.62069589357E+01 0.62686251230E+01 0.62069362084E+01
 0.60374492146E+01 0.57995334404E+01 0.55359313758E+01 0.52755443998E+01 0.50552158382E+01
 0.52171093737E+01 0.54079410510E+01 0.55908651958E+01 0.57372699259E+01 0.58199501782E+01
 0.58199415203E+01 0.57372713173E+01 0.55909014255E+01 0.54079710338E+01 0.52170890175E+01
 0.50551711153E+01 0.49518798735E+01 0.49182831241E+01 0.49440375604E+01 0.50031908195E+01
 0.50647238096E+01 0.51026618520E+01 0.51026446789E+01 0.50647009244E+01 0.50031968539E+01
 0.49440586935E+01 0.49182974975E+01 0.49519054245E+01 0.57000679481E+01 0.61588646209E+01
 0.66304698758E+01 0.70515886501E+01 0.73442632901E+01 0.74490820804E+01 0.73443118411E+01
 0.70516483833E+01 0.66305155518E+01 0.61588963339E+01 0.57000821735E+01 0.52755365239E+01
 0.49182704098E+01 0.46587790744E+01 0.44987196900E+01 0.44173623652E+01 0.43851041784E+01
 0.43774837518E+01 0.43851420202E+01 0.44174072184E+01 0.44987561122E+01 0.46588151499E+01
 0.49183070699E+01 0.52755521304E+01 0.71163323624E+01 0.80758539302E+01 0.89952389921E+01
 0.97169798210E+01 0.10112605606E+02 0.10112555033E+02 0.97169493672E+01 0.89953375555E+01
 0.80759435930E+01 0.71162941043E+01 0.62516268138E+01 0.55360018850E+01 0.49440760137E+01
 0.44986802127E+01 0.42065081709E+01 0.40423961310E+01 0.39718112240E+01 0.39717471695E+01
 0.40423501356E+01 0.42066237075E+01 0.44988014734E+01 0.49440311918E+01 0.55359121859E+01
 0.62516551973E+01 0.98962611411E+01 0.11541942216E+02 0.12943249556E+02 0.13879267203E+02
 0.14207456677E+02 0.13879263436E+02 0.12943246205E+02 0.11541941846E+02 0.98962688001E+01
 0.82637597301E+01 0.68650666908E+01 0.57995893142E+01 0.50032906271E+01 0.44173499440E+01
 0.40422678967E+01 0.38436761199E+01 0.37828434275E+01 0.38436636556E+01 0.40422695548E+01
 0.44173694110E+01 0.50032953184E+01 0.57995596575E+01 0.68650253645E+01 0.82637326629E+01
 0.14452911252E+02 0.16765866050E+02 0.18507456686E+02 0.19439820557E+02 0.19439984176E+02
 0.18507620552E+02 0.16765705563E+02 0.14452753140E+02 0.11898923273E+02 0.94703128320E+01
 0.74721995930E+01 0.60374024978E+01 0.50648018669E+01 0.43851903874E+01 0.39716916432E+01
 0.37826668693E+01 0.37828504260E+01 0.39718799336E+01 0.43850069089E+01 0.50645808995E+01
 0.60375234220E+01 0.74723578982E+01 0.94701585124E+01 0.11898761705E+02 0.20758191205E+02
 0.23557618053E+02 0.25395345087E+02 0.26035645399E+02 0.25395368618E+02 0.23557654734E+02
 0.20758212792E+02 0.17355508254E+02 0.13794230149E+02 0.10540634385E+02 0.79655109200E+01
 0.62068362160E+01 0.51026520498E+01 0.43776136270E+01 0.39717821039E+01 0.38435441878E+01
 0.39717961246E+01 0.43776113091E+01 0.51026114185E+01 0.62067796988E+01 0.79654855306E+01
 0.10540661272E+02 0.13794277608E+02 0.17355526962E+02 0.28492351186E+02 0.31557528883E+02
 0.33210241689E+02 0.33210158533E+02 0.31557481723E+02 0.28492509268E+02 0.24420114115E+02
 0.19833434257E+02 0.15274473693E+02 0.11278310063E+02 0.82426006878E+01 0.62685728166E+01
 0.51025932080E+01 0.43851992185E+01 0.40424414079E+01 0.40423021773E+01 0.43850360216E+01
 0.51026728449E+01 0.62686695386E+01 0.82424729262E+01 0.11278201434E+02 0.15274631956E+02
 0.19833606032E+02 0.24420017791E+02 0.37304915974E+02 0.40407264035E+02 0.41509235209E+02
 0.40407316200E+02 0.37304981218E+02 0.32711508948E+02 0.27242852717E+02 0.21504181164E+02
 0.16086137466E+02 0.11541340374E+02 0.82425499289E+01 0.62069359331E+01 0.50647033867E+01
 0.44174008278E+01 0.42065974776E+01 0.44173679699E+01 0.50646598426E+01 0.62069048932E+01
 0.82425422353E+01 0.11541361000E+02 0.16086183346E+02 0.21504231891E+02 0.27242873422E+02
 0.32711477625E+02 0.46815205402E+02 0.49585135277E+02 0.49585018191E+02 0.46815116055E+02
 0.41864122656E+02 0.35589735569E+02 0.28786368004E+02 0.22094385766E+02 0.16086216295E+02
 0.11278315682E+02 0.79654331247E+01 0.60373757720E+01 0.50032564263E+01 0.44988286227E+01
 0.44987068934E+01 0.50031390458E+01 0.60375049371E+01 0.79655554716E+01 0.11278197297E+02
 0.16086124885E+02 0.22094552018E+02 0.28786494267E+02 0.35589557463E+02 0.41863932293E+02
 0.56259984927E+02 0.58049746401E+02 0.56260009002E+02 0.51350834302E+02 0.44418661720E+02
 0.36616465766E+02 0.28786461023E+02 0.21504035631E+02 0.15274554023E+02 0.10540714057E+02
 0.74722452383E+01 0.57993322760E+01 0.49440490181E+01 0.46590293845E+01 0.49440717901E+01
 0.57993617155E+01 0.74722743829E+01 0.10540745632E+02 0.15274576136E+02 0.21504028497E+02
 0.28786425096E+02 0.36616423788E+02 0.44418625965E+02 0.51350801150E+02 0.64201180354E+02
 0.64201606838E+02 0.60105588018E+02 0.53003131021E+02 0.44418429111E+02 0.35589858256E+02
 0.27243105276E+02 0.19833350732E+02 0.13794054390E+02 0.94704283079E+01 0.68653093497E+01
 0.55357311625E+01 0.49180953217E+01 0.49185151237E+01 0.55361569949E+01 0.68649100072E+01
 0.94700371700E+01 0.13794490168E+02 0.19833759569E+02 0.27242656191E+02 0.35589411719E+02
 0.44418833666E+02 0.53003539009E+02 0.60105154807E+02 0.68824516072E+02 0.66472773188E+02
 0.60105720016E+02 0.51351004703E+02 0.41863643684E+02 0.32711477998E+02 0.24420434091E+02
 0.17355651462E+02 0.11898493408E+02 0.82637315942E+01 0.62519755641E+01 0.52755444969E+01
 0.49515604502E+01 0.52755444969E+01 0.62519755641E+01 0.82637315942E+01 0.11898493408E+02
 0.17355651462E+02 0.24420434091E+02 0.32711477998E+02 0.41863643684E+02 0.51351004703E+02
 0.60105720016E+02 0.66472773188E+02 0.62064686010E+02 0.56259669668E+02 0.48222183081E+02
 0.39424526645E+02 0.30850256059E+02 0.23036563915E+02 0.16385729372E+02 0.11283940946E+02
 0.79183621801E+01 0.60649554956E+01 0.51463153086E+01 0.48402749930E+01 0.51463051674E+01
 0.60649389865E+01 0.79183453365E+01 0.11283930698E+02 0.16385731124E+02 0.23036580629E+02
 0.30850286463E+02 0.39424565539E+02 0.48222223386E+02 0.56259702395E+02 0.62064704240E+02
 0.64201684308E+02 0.56260134226E+02 0.49584839188E+02 0.41508990368E+02 0.33210325271E+02
 0.25395517304E+02 0.18507373203E+02 0.12943159605E+02 0.89954335595E+01 0.66306468812E+01
 0.54078010410E+01 0.48275706432E+01 0.48278998452E+01 0.54081164644E+01 0.66302901818E+01
 0.89951003620E+01 0.12943516241E+02 0.18507712908E+02 0.25395169490E+02 0.33210011787E+02
 0.41509401008E+02 0.49585251380E+02 0.56259829233E+02 0.60105204579E+02 0.60105538246E+02
 0.48222346011E+02 0.41509162389E+02 0.34032369243E+02 0.26642577252E+02 0.19886812035E+02
 0.14196555557E+02 0.99231547472E+01 0.71721965834E+01 0.56633263182E+01 0.48681551187E+01
 0.46029091435E+01 0.48681442856E+01 0.56633063421E+01 0.71721718709E+01 0.99231320334E+01
 0.14196544515E+02 0.19886819917E+02 0.26642609047E+02 0.34032421535E+02 0.41509223145E+02
 0.48222400797E+02 0.53003359718E+02 0.54750249854E+02 0.53003327591E+02 0.39424283237E+02
 0.33210202379E+02 0.26642528123E+02 0.20363446219E+02 0.14866509784E+02 0.10547243116E+02
 0.76009214129E+01 0.58828028342E+01 0.49349337152E+01 0.44693686242E+01 0.44692811544E+01
 0.49348459280E+01 0.58828746872E+01 0.76009574905E+01 0.10547093038E+02 0.14866411528E+02
 0.20363584672E+02 0.26642666388E+02 0.33210130095E+02 0.39424215007E+02 0.44418710520E+02
 0.47241664515E+02 0.47241546708E+02 0.44418573118E+02 0.30850256059E+02 0.25395327752E+02
 0.19886649105E+02 0.14866478186E+02 0.10766400371E+02 0.78374300901E+01 0.60346122772E+01
 0.49989158609E+01 0.44048169746E+01 0.42118379324E+01 0.44048225870E+01 0.49989210951E+01
 0.60346089628E+01 0.78374144545E+01 0.10766374557E+02 0.14866452534E+02 0.19886634015E+02
 0.25395329727E+02 0.30850273660E+02 0.35589663510E+02 0.38867217778E+02 0.40045172990E+02
 0.38867202160E+02 0.35589640667E+02 0.23036914252E+02 0.18507487424E+02 0.14196497757E+02
 0.10547251786E+02 0.78375054209E+01 0.60889162561E+01 0.50369714943E+01 0.43814280009E+01
 0.40695308778E+01 0.40694062261E+01 0.43813100466E+01 0.50371238707E+01 0.60890866450E+01
 0.78374071371E+01 0.10547094138E+02 0.14196548738E+02 0.18507562341E+02 0.23036789276E+02
 0.27242811917E+02 0.30530909993E+02 0.32348056279E+02 0.32347942947E+02 0.30530795895E+02
 0.27242925409E+02 0.16385843009E+02 0.12943331626E+02 0.99232040406E+01 0.76009705425E+01
 0.60347259144E+01 0.50370292944E+01 0.43762544862E+01 0.40090885370E+01 0.38936169985E+01
 0.40090999601E+01 0.43762747386E+01 0.50370541526E+01 0.60347483289E+01 0.76009841573E+01
 0.99232029638E+01 0.12943312902E+02 0.16385810432E+02 0.19833508807E+02 0.22803529714E+02
 0.24825591552E+02 0.25544355666E+02 0.24825612470E+02 0.22803564679E+02 0.19833548151E+02
 0.11283727828E+02 0.89953409572E+01 0.71721171642E+01 0.58827725446E+01 0.49989777493E+01
 0.43814496200E+01 0.40090091178E+01 0.38397873725E+01 0.38399543392E+01 0.40091766038E+01
 0.43812787892E+01 0.49988027257E+01 0.58829442347E+01 0.71723215768E+01 0.89952260378E+01
 0.11283575428E+02 0.13794326265E+02 0.16175045006E+02 0.18043782944E+02 0.19073605653E+02
 0.19073778092E+02 0.18043979208E+02 0.16174933466E+02 0.13794199331E+02 0.79183621801E+01
 0.66305599654E+01 0.56631633876E+01 0.49347994800E+01 0.44048169746E+01 0.40695581834E+01
 0.38935033613E+01 0.38397898145E+01 0.38934894301E+01 0.40695384619E+01 0.44048025974E+01
 0.49347990064E+01 0.56631792641E+01 0.66305837244E+01 0.79183861370E+01 0.94701782276E+01
 0.11098846980E+02 0.12543101664E+02 0.13539982451E+02 0.13895978215E+02 0.13539987789E+02
 0.12543106961E+02 0.11098844084E+02 0.94701634820E+01 0.60652160489E+01 0.54080050461E+01
 0.48681871024E+01 0.44692875110E+01 0.42118234794E+01 0.40694960098E+01 0.40091319437E+01
 0.40090652010E+01 0.40694213726E+01 0.42118690440E+01 0.44693317121E+01 0.48681055148E+01
 0.54079281741E+01 0.60652755257E+01 0.68651688947E+01 0.77771412670E+01 0.86814854619E+01
 0.94147884150E+01 0.98261123935E+01 0.98260382472E+01 0.94146922260E+01 0.86815033531E+01
 0.77771657665E+01 0.68650894412E+01 0.51463071875E+01 0.48277426647E+01 0.46030801951E+01
 0.44693302839E+01 0.44048144660E+01 0.43813678467E+01 0.43763964968E+01 0.43813582083E+01
 0.44047944764E+01 0.44692997284E+01 0.46030441848E+01 0.48277077960E+01 0.51462855499E+01
 0.55359485770E+01 0.59622220114E+01 0.64068829741E+01 0.68137574825E+01 0.71029558124E+01
 0.72078721149E+01 0.71029284743E+01 0.68137141568E+01 0.64068402488E+01 0.59621946428E+01
 0.55359455772E+01 0.48399915067E+01 0.48277368744E+01 0.48681352350E+01 0.49348860069E+01
 0.49989126150E+01 0.50370751213E+01 0.50370451020E+01 0.49988730942E+01 0.49348931626E+01
 0.48681465491E+01 0.48276987453E+01 0.48399401389E+01 0.49182846383E+01 0.50563991700E+01
 0.52291117734E+01 0.54008801476E+01 0.55397765276E+01 0.56188786088E+01 0.56188541287E+01
 0.55397422049E+01 0.54008774286E+01 0.52291156900E+01 0.50563873981E+01 0.49182946554E+01
 0.51463051674E+01 0.54079542763E+01 0.56631434116E+01 0.58828157242E+01 0.60346089628E+01
 0.60890386783E+01 0.60346346918E+01 0.58828549822E+01 0.56631792641E+01 0.54079699911E+01
 0.51462936709E+01 0.49182657542E+01 0.47545806758E+01 0.46651670012E+01 0.46386402844E+01
 0.46498310123E+01 0.46707154562E+01 0.46802520846E+01 0.46707175766E+01 0.46498396412E+01
 0.46386614772E+01 0.46652000227E+01 0.47546178888E+01 0.49182969059E+01 0.60652433152E+01
 0.66304504115E+01 0.71721600792E+01 0.76009201526E+01 0.78374437769E+01 0.78374531455E+01
 0.76009723656E+01 0.71722539493E+01 0.66305104104E+01 0.60652317503E+01 0.55359367853E+01
 0.50564019111E+01 0.46651689595E+01 0.43869732498E+01 0.42161420728E+01 0.41275337451E+01
 0.40923786396E+01 0.40923577129E+01 0.41275294663E+01 0.42162138235E+01 0.43870532310E+01
 0.46651795353E+01 0.50563846570E+01 0.55359543719E+01 0.79184034886E+01 0.89952723834E+01
 0.99232368118E+01 0.10547142168E+02 0.10766432709E+02 0.10547151938E+02 0.99232584489E+01
 0.89953054569E+01 0.79184442891E+01 0.68651369111E+01 0.59621557383E+01 0.52291208240E+01
 0.46386984365E+01 0.42161538645E+01 0.39532298052E+01 0.38172972729E+01 0.37763027790E+01
 0.38173226800E+01 0.39532702736E+01 0.42161916293E+01 0.46387197337E+01 0.52291159487E+01
 0.59621283696E+01 0.68650979321E+01 0.11283708822E+02 0.12943414880E+02 0.14196473854E+02
 0.14866389997E+02 0.14866505665E+02 0.14196561599E+02 0.12943242241E+02 0.11283584186E+02
 0.94703339941E+01 0.77772439115E+01 0.64068123132E+01 0.54008185373E+01 0.46499115066E+01
 0.41275926143E+01 0.38172266120E+01 0.36774817661E+01 0.36776355416E+01 0.38173880991E+01
 0.41274544756E+01 0.46497569811E+01 0.54009432406E+01 0.64069325867E+01 0.77770631219E+01
 0.94701462294E+01 0.16385731124E+02 0.18507666207E+02 0.19886656986E+02 0.20363410221E+02
 0.19886634015E+02 0.18507629861E+02 0.16385696795E+02 0.13794121525E+02 0.11098846980E+02
 0.86816427664E+01 0.68137656036E+01 0.55396421560E+01 0.46707154562E+01 0.40924921688E+01
 0.37762446269E+01 0.36774395598E+01 0.37762398530E+01 0.40924800863E+01 0.46706938675E+01
 0.55396122006E+01 0.68137351291E+01 0.86816206109E+01 0.11098844084E+02 0.13794140486E+02
 0.23036787913E+02 0.25395426765E+02 0.26642694301E+02 0.26642532005E+02 0.25395262004E+02
 0.23036932330E+02 0.19833594060E+02 0.16174880334E+02 0.12542931305E+02 0.94148416851E+01
 0.71030410662E+01 0.56187843044E+01 0.46801569974E+01 0.40924547583E+01 0.38174079338E+01
 0.38172321845E+01 0.40922695117E+01 0.46803051945E+01 0.56189304794E+01 0.71028497161E+01
 0.94146623946E+01 0.12543119933E+02 0.16175098139E+02 0.19833476896E+02 0.30850207211E+02
 0.33210183809E+02 0.34032663719E+02 0.33210179224E+02 0.30850194408E+02 0.27242869717E+02
 0.22803722604E+02 0.18043862363E+02 0.13539903199E+02 0.98260804098E+01 0.72079432464E+01
 0.56188631794E+01 0.46706383240E+01 0.41275412580E+01 0.39534076783E+01 0.41275251365E+01
 0.46706146149E+01 0.56188452256E+01 0.72079418228E+01 0.98260994558E+01 0.13539938133E+02
 0.18043902134E+02 0.22803757568E+02 0.27242893858E+02 0.39424269606E+02 0.41509225591E+02
 0.41509226541E+02 0.39424267533E+02 0.35589642583E+02 0.30530848797E+02 0.24825594948E+02
 0.19073688468E+02 0.13896059925E+02 0.98260668347E+01 0.71029318705E+01 0.55397546517E+01
 0.46498460784E+01 0.42161986356E+01 0.42161950254E+01 0.46498310381E+01 0.55397341253E+01
 0.71029315737E+01 0.98261028520E+01 0.13896110649E+02 0.19073722388E+02 0.24825609027E+02