   1   1   0   0
  0.1145915E+02  0.2530594E-09  0.2530594E-09  0.2530594E-09  0.5000000E-15
  1.000000000000000E-004
  CAR 
 unknown system                          
     42.20129789      3.62305998  301     14.75637525      1.00000000
      3.623  0.0000E+00  0.0000E+00
      3.752  0.0000E+00  0.0000E+00
      3.880  0.0000E+00  0.0000E+00
      4.009 -0.2359E-30 -0.3034E-31
      4.137 -0.4620E-26 -0.5942E-27
      4.266 -0.3928E-22 -0.5052E-23
      4.395 -0.1448E-18 -0.1862E-19
      4.523 -0.2233E-15 -0.2873E-16
      4.652 -0.1521E-12 -0.1959E-13
      4.780 -0.4426E-10 -0.5712E-11
      4.909 -0.5444E-08 -0.7057E-09
      5.038 -0.2768E-06 -0.3630E-07
      5.166 -0.5535E-05 -0.7481E-06
      5.295 -0.3704E-04 -0.5512E-05
      5.423 -0.7792E-05 -0.6514E-05
      5.552  0.4910E-03  0.5663E-04
      5.681  0.9947E-03  0.1845E-03
      5.809  0.4215E-03  0.2387E-03
      5.938  0.4281E-03  0.2938E-03
      6.066  0.2384E-02  0.6004E-03
      6.195  0.2692E-02  0.9466E-03
      6.324  0.9410E-03  0.1068E-02
      6.452  0.1792E-02  0.1298E-02
      6.581  0.2673E-02  0.1642E-02
      6.709  0.1833E-02  0.1878E-02
      6.838  0.4368E-02  0.2439E-02
      6.967  0.5995E-02  0.3210E-02
      7.095  0.8832E-02  0.4346E-02
      7.224  0.2042E-01  0.6972E-02
      7.352  0.2769E-01  0.1053E-01
      7.481  0.3159E-01  0.1459E-01
      7.609  0.3622E-01  0.1925E-01
      7.738  0.4255E-01  0.2472E-01
      7.867  0.5897E-01  0.3231E-01
      7.995  0.6889E-01  0.4117E-01
      8.124  0.6192E-01  0.4913E-01
      8.252  0.5439E-01  0.5612E-01
      8.381  0.5499E-01  0.6319E-01
      8.510  0.4997E-01  0.6962E-01
      8.638  0.4311E-01  0.7516E-01
      8.767  0.3732E-01  0.7996E-01
      8.895  0.2704E-01  0.8344E-01
      9.024  0.2519E-01  0.8668E-01
      9.153  0.4248E-01  0.9214E-01
      9.281  0.5517E-01  0.9923E-01
      9.410  0.4019E-01  0.1044E+00
      9.538  0.2740E-01  0.1079E+00
      9.667  0.3648E-01  0.1126E+00
      9.796  0.3684E-01  0.1174E+00
      9.924  0.3245E-01  0.1215E+00
     10.053  0.4022E-01  0.1267E+00
     10.181  0.4022E-01  0.1319E+00
     10.310  0.3551E-01  0.1364E+00
     10.439  0.4633E-01  0.1424E+00
     10.567  0.5670E-01  0.1497E+00
     10.696  0.5242E-01  0.1564E+00
     10.824  0.5609E-01  0.1636E+00
     10.953  0.6595E-01  0.1721E+00
     11.082  0.6628E-01  0.1806E+00
     11.210  0.5961E-01  0.1883E+00
     11.339  0.4935E-01  0.1947E+00
     11.467  0.3935E-01  0.1997E+00
     11.596  0.3440E-01  0.2041E+00
     11.724  0.4119E-01  0.2094E+00
     11.853  0.4924E-01  0.2158E+00
     11.982  0.3747E-01  0.2206E+00
     12.110  0.2360E-01  0.2236E+00
     12.239  0.2527E-01  0.2269E+00
     12.367  0.3807E-01  0.2318E+00
     12.496  0.5336E-01  0.2386E+00
     12.625  0.5793E-01  0.2461E+00
     12.753  0.5334E-01  0.2529E+00
     12.882  0.3897E-01  0.2579E+00
     13.010  0.2552E-01  0.2612E+00
     13.139  0.2822E-01  0.2649E+00
     13.268  0.4063E-01  0.2701E+00
     13.396  0.5138E-01  0.2767E+00
     13.525  0.4443E-01  0.2824E+00
     13.653  0.2657E-01  0.2858E+00
     13.782  0.1659E-01  0.2880E+00
     13.911  0.3142E-01  0.2920E+00
     14.039  0.4923E-01  0.2983E+00
     14.168  0.4404E-01  0.3040E+00
     14.296  0.3336E-01  0.3083E+00
     14.425  0.3460E-01  0.3127E+00
     14.554  0.5160E-01  0.3194E+00
     14.682  0.7048E-01  0.3284E+00
     14.811  0.6097E-01  0.3363E+00
     14.939  0.3799E-01  0.3412E+00
     15.068  0.3600E-01  0.3458E+00
     15.197  0.3528E-01  0.3503E+00
     15.325  0.1267E-01  0.3519E+00
     15.454  0.1441E-02  0.3521E+00
     15.582  0.1486E-02  0.3523E+00
     15.711  0.2573E-03  0.3524E+00
     15.840 -0.3452E-03  0.3523E+00
     15.968  0.5844E-03  0.3524E+00
     16.097  0.2899E-02  0.3528E+00
     16.225  0.8450E-02  0.3538E+00
     16.354  0.1767E-01  0.3561E+00
     16.482  0.1878E-01  0.3585E+00
     16.611  0.1037E-01  0.3599E+00
     16.740  0.2264E-02  0.3602E+00
     16.868  0.5970E-03  0.3602E+00
     16.997  0.6981E-02  0.3611E+00
     17.125  0.1073E-01  0.3625E+00
     17.254  0.5394E-02  0.3632E+00
     17.383  0.7986E-03  0.3633E+00
     17.511  0.2956E-02  0.3637E+00
     17.640  0.6219E-02  0.3645E+00
     17.768  0.6297E-02  0.3653E+00
     17.897  0.6763E-02  0.3662E+00
     18.026  0.7161E-02  0.3671E+00
     18.154  0.8587E-02  0.3682E+00
     18.283  0.8710E-02  0.3693E+00
     18.411  0.8474E-02  0.3704E+00
     18.540  0.1052E-01  0.3718E+00
     18.669  0.9215E-02  0.3729E+00
     18.797  0.3904E-02  0.3734E+00
     18.926  0.5398E-02  0.3741E+00
     19.054  0.8805E-02  0.3753E+00
     19.183  0.4628E-02  0.3759E+00
     19.312  0.3107E-02  0.3763E+00
     19.440  0.8295E-02  0.3773E+00
     19.569  0.1361E-01  0.3791E+00
     19.697  0.9650E-02  0.3803E+00
     19.826  0.1507E-02  0.3805E+00
     19.955 -0.8326E-03  0.3804E+00
     20.083  0.4211E-02  0.3810E+00
     20.212  0.1148E-01  0.3824E+00
     20.340  0.8160E-02  0.3835E+00
     20.469  0.3119E-02  0.3839E+00
     20.597  0.6763E-02  0.3847E+00
     20.726  0.9075E-02  0.3859E+00
     20.855  0.6478E-02  0.3867E+00
     20.983  0.6587E-02  0.3876E+00
     21.112  0.7615E-02  0.3886E+00
     21.240  0.4656E-02  0.3892E+00
     21.369  0.2980E-02  0.3896E+00
     21.498  0.1396E-02  0.3897E+00
     21.626  0.2029E-02  0.3900E+00
     21.755  0.9647E-02  0.3912E+00
     21.883  0.1103E-01  0.3927E+00
     22.012  0.5606E-02  0.3934E+00
     22.141  0.5495E-02  0.3941E+00
     22.269  0.3569E-02  0.3945E+00
     22.398  0.1998E-02  0.3948E+00
     22.526  0.2795E-02  0.3952E+00
     22.655  0.1014E-02  0.3953E+00
     22.784 -0.3278E-03  0.3952E+00
     22.912  0.3917E-02  0.3957E+00
     23.041  0.1109E-01  0.3972E+00
     23.169  0.8897E-02  0.3983E+00
     23.298  0.1627E-02  0.3985E+00
     23.427 -0.5172E-03  0.3985E+00
     23.555 -0.2540E-03  0.3984E+00
     23.684 -0.3268E-03  0.3984E+00
     23.812  0.5373E-03  0.3985E+00
     23.941  0.4315E-02  0.3990E+00
     24.070  0.6000E-02  0.3998E+00
     24.198  0.5413E-02  0.4005E+00
     24.327  0.1397E-01  0.4023E+00
     24.455  0.2539E-01  0.4055E+00
     24.584  0.2078E-01  0.4082E+00
     24.712  0.8493E-02  0.4093E+00
     24.841  0.4784E-02  0.4099E+00
     24.970  0.5562E-02  0.4106E+00
     25.098  0.5664E-02  0.4114E+00
     25.227  0.1067E-01  0.4127E+00
     25.355  0.1754E-01  0.4150E+00
     25.484  0.1832E-01  0.4173E+00
     25.613  0.1080E-01  0.4187E+00
     25.741  0.2540E-02  0.4191E+00
     25.870  0.2342E-03  0.4191E+00
     25.998  0.3210E-02  0.4195E+00
     26.127  0.7155E-02  0.4204E+00
     26.256  0.1000E-01  0.4217E+00
     26.384  0.1088E-01  0.4231E+00
     26.513  0.9640E-02  0.4243E+00
     26.641  0.1431E-01  0.4262E+00
     26.770  0.1879E-01  0.4286E+00
     26.899  0.9959E-02  0.4299E+00
     27.027  0.1123E-02  0.4300E+00
     27.156 -0.1174E-02  0.4299E+00
     27.284  0.1270E-03  0.4299E+00
     27.413  0.8502E-02  0.4310E+00
     27.542  0.1516E-01  0.4329E+00
     27.670  0.1045E-01  0.4343E+00
     27.799  0.8412E-02  0.4354E+00
     27.927  0.7014E-02  0.4363E+00
     28.056  0.8284E-02  0.4373E+00
     28.185  0.1247E-01  0.4389E+00
     28.313  0.1034E-01  0.4403E+00
     28.442  0.8314E-02  0.4413E+00
     28.570  0.2360E-01  0.4444E+00
     28.699  0.4222E-01  0.4498E+00
     28.828  0.2991E-01  0.4536E+00
     28.956  0.8839E-02  0.4548E+00
     29.085  0.1120E-01  0.4562E+00
     29.213  0.1720E-01  0.4584E+00
     29.342  0.1326E-01  0.4601E+00
     29.470  0.8659E-02  0.4613E+00
     29.599  0.8482E-02  0.4623E+00
     29.728  0.1076E-01  0.4637E+00
     29.856  0.1906E-01  0.4662E+00
     29.985  0.3130E-01  0.4702E+00
     30.113  0.2670E-01  0.4736E+00
     30.242  0.8815E-02  0.4748E+00
     30.371 -0.6347E-03  0.4747E+00
     30.499  0.5467E-02  0.4754E+00
     30.628  0.2168E-01  0.4782E+00
     30.756  0.2964E-01  0.4820E+00
     30.885  0.1984E-01  0.4845E+00
     31.014  0.1531E-01  0.4865E+00
     31.142  0.2717E-01  0.4900E+00
     31.271  0.2680E-01  0.4934E+00
     31.399  0.1680E-01  0.4956E+00
     31.528  0.1402E-01  0.4974E+00
     31.657  0.1229E-01  0.4990E+00
     31.785  0.1335E-01  0.5007E+00
     31.914  0.2282E-01  0.5036E+00
     32.042  0.2728E-01  0.5072E+00
     32.171  0.2600E-01  0.5105E+00
     32.300  0.2907E-01  0.5142E+00
     32.428  0.3526E-01  0.5188E+00
     32.557  0.3816E-01  0.5237E+00
     32.685  0.2869E-01  0.5274E+00
     32.814  0.1922E-01  0.5298E+00
     32.943  0.1510E-01  0.5318E+00
     33.071  0.1626E-01  0.5339E+00
     33.200  0.1809E-01  0.5362E+00
     33.328  0.1671E-01  0.5383E+00
     33.457  0.1726E-01  0.5406E+00
     33.585  0.2049E-01  0.5432E+00
     33.714  0.2304E-01  0.5462E+00
     33.843  0.2651E-01  0.5496E+00
     33.971  0.2557E-01  0.5529E+00
     34.100  0.1588E-01  0.5549E+00
     34.228  0.5246E-02  0.5556E+00
     34.357  0.5848E-02  0.5563E+00
     34.486  0.1764E-01  0.5586E+00
     34.614  0.2122E-01  0.5613E+00
     34.743  0.1444E-01  0.5632E+00
     34.871  0.7004E-02  0.5641E+00
     35.000  0.7578E-02  0.5651E+00
     35.129  0.2254E-01  0.5680E+00
     35.257  0.3123E-01  0.5720E+00
     35.386  0.1770E-01  0.5742E+00
     35.514  0.3907E-02  0.5748E+00
     35.643  0.8366E-02  0.5758E+00
     35.772  0.1615E-01  0.5779E+00
     35.900  0.9495E-02  0.5791E+00
     36.029  0.1064E-02  0.5793E+00
     36.157  0.2874E-02  0.5796E+00
     36.286  0.5701E-02  0.5804E+00
     36.415  0.2457E-02  0.5807E+00
     36.543  0.2610E-02  0.5810E+00
     36.672  0.9509E-02  0.5822E+00
     36.800  0.9942E-02  0.5835E+00
     36.929  0.4284E-02  0.5841E+00
     37.058  0.5177E-02  0.5847E+00
     37.186  0.8347E-02  0.5858E+00
     37.315  0.8352E-02  0.5869E+00
     37.443  0.6553E-02  0.5877E+00
     37.572  0.2038E-02  0.5880E+00
     37.701  0.7884E-03  0.5881E+00
     37.829  0.7842E-02  0.5891E+00
     37.958  0.1444E-01  0.5910E+00
     38.086  0.1127E-01  0.5924E+00
     38.215  0.8802E-02  0.5935E+00
     38.343  0.1205E-01  0.5951E+00
     38.472  0.1054E-01  0.5964E+00
     38.601  0.4847E-02  0.5971E+00
     38.729  0.8183E-03  0.5972E+00
     38.858  0.1234E-02  0.5973E+00
     38.986  0.3000E-02  0.5977E+00
     39.115  0.1702E-02  0.5979E+00
     39.244  0.3795E-04  0.5979E+00
     39.372 -0.2132E-03  0.5979E+00
     39.501 -0.3209E-03  0.5979E+00
     39.629  0.7302E-03  0.5980E+00
     39.758  0.4858E-02  0.5986E+00
     39.887  0.6584E-02  0.5994E+00
     40.015  0.2690E-02  0.5998E+00
     40.144  0.4913E-03  0.5998E+00
     40.272  0.8330E-03  0.5999E+00
     40.401  0.4619E-03  0.6000E+00
     40.530 -0.9525E-05  0.6000E+00
     40.658 -0.3709E-04  0.6000E+00
     40.787 -0.5536E-05  0.6000E+00
     40.915 -0.2768E-06  0.6000E+00
     41.044 -0.5444E-08  0.6000E+00
     41.173 -0.4426E-10  0.6000E+00
     41.301 -0.1521E-12  0.6000E+00
     41.430 -0.2235E-15  0.6000E+00
     41.558  0.0000E+00  0.6000E+00
     41.687  0.0000E+00  0.6000E+00
     41.816  0.0000E+00  0.6000E+00
     41.944  0.0000E+00  0.6000E+00
     42.073  0.0000E+00  0.6000E+00
     42.201  0.0000E+00  0.6000E+00
