    1    1   30    1
  0.1145915E+02  0.2530594E-09  0.2530594E-09  0.2530594E-09  0.5000000E-15
  1.000000000000000E-004
  CAR 
 unknown system                          
     10     60      9
 
  0.6250000E-01  0.6250000E-01  0.6250000E-01  0.3906250E-02
    1        5.623060
    2       10.406533
    3       10.558372
    4       10.558372
    5       12.876045
    6       12.876045
    7       31.919862
    8       36.983261
    9       38.214347
 
  0.1875000E+00  0.6250000E-01  0.6250000E-01  0.1171875E-01
    1        6.492775
    2       10.038886
    3       10.864077
    4       10.906953
    5       12.508128
    6       13.039009
    7       33.113990
    8       34.431801
    9       38.470419
 
  0.3125000E+00  0.6250000E-01  0.6250000E-01  0.1171875E-01
    1        7.550846
    2       10.467859
    3       10.913716
    4       10.965539
    5       12.854644
    6       13.860122
    7       30.612400
    8       33.607029
    9       39.811856
 
  0.4375000E+00  0.6250000E-01  0.6250000E-01  0.1171875E-01
    1        7.374592
    2       10.431832
    3       10.608729
    4       12.824100
    5       14.065049
    6       15.445512
    7       26.407747
    8       31.921637
    9       37.971563
 
 -0.4375000E+00  0.6250000E-01  0.6250000E-01  0.1171875E-01
    1        7.238587
    2       10.262961
    3       10.516672
    4       13.544664
    5       14.756461
    6       16.382994
    7       24.498349
    8       31.370664
    9       37.799927
 
 -0.3125000E+00  0.6250000E-01  0.6250000E-01  0.1171875E-01
    1        7.465708
    2       10.507826
    3       10.777240
    4       11.926639
    5       14.277731
    6       14.395261
    7       27.784783
    8       32.469878
    9       38.928563
 
 -0.1875000E+00  0.6250000E-01  0.6250000E-01  0.1171875E-01
    1        7.338534
    2       10.044295
    3       10.953453
    4       11.052019
    5       12.755233
    6       13.335039
    7       31.951061
    8       33.864131
    9       39.749227
 
 -0.6250000E-01  0.6250000E-01  0.6250000E-01  0.1171875E-01
    1        6.080793
    2       10.128699
    3       10.779159
    4       10.788556
    5       12.561393
    6       13.015546
    7       32.598150
    8       35.783199
    9       38.308901
 
  0.1875000E+00  0.1875000E+00  0.6250000E-01  0.1171875E-01
    1        6.895693
    2        9.608779
    3       11.188812
    4       11.238211
    5       12.153765
    6       13.278881
    7       33.806776
    8       34.789017
    9       38.041662
 
  0.3125000E+00  0.1875000E+00  0.6250000E-01  0.2343750E-01
    1        7.997865
    2        9.194037
    3       10.853525
    4       11.789746
    5       12.725106
    6       14.062561
    7       32.492580
    8       34.542429
    9       37.370349
 
  0.4375000E+00  0.1875000E+00  0.6250000E-01  0.2343750E-01
    1        8.032084
    2        9.915472
    3       10.584399
    4       11.563388
    5       14.198646
    6       16.253417
    7       28.080749
    8       33.132583
    9       35.715972
 
 -0.4375000E+00  0.1875000E+00  0.6250000E-01  0.2343750E-01
    1        7.894904
    2        9.652863
    3       11.207074
    4       11.750325
    5       14.640457
    6       18.982726
    7       24.328752
    8       32.216266
    9       35.295644
 
 -0.3125000E+00  0.1875000E+00  0.6250000E-01  0.2343750E-01
    1        8.098612
    2        9.871996
    3       11.046007
    4       11.450168
    5       13.875031
    6       17.565797
    7       26.677941
    8       32.407844
    9       35.240239
 
 -0.1875000E+00  0.1875000E+00  0.6250000E-01  0.2343750E-01
    1        8.367549
    2        9.549908
    3       10.537610
    4       11.706905
    5       12.478549
    6       15.103358
    7       31.082188
    8       33.538900
    9       37.163634
 
 -0.6250000E-01  0.1875000E+00  0.6250000E-01  0.2343750E-01
    1        7.223965
    2        9.684382
    3       11.034503
    4       11.227666
    5       12.306536
    6       13.433179
    7       33.317727
    8       33.972268
    9       38.253959
 
  0.3125000E+00  0.3125000E+00  0.6250000E-01  0.1171875E-01
    1        7.970606
    2        8.373666
    3       11.893206
    4       12.667459
    5       13.520799
    6       14.045138
    7       33.133009
    8       34.622077
    9       34.724619
 
  0.4375000E+00  0.3125000E+00  0.6250000E-01  0.2343750E-01
    1        7.864991
    2        8.187739
    3       11.744124
    4       13.291996
    5       14.324319
    6       16.553395
    7       30.116523
    8       32.201469
    9       32.865492
 
 -0.4375000E+00  0.3125000E+00  0.6250000E-01  0.2343750E-01
    1        7.950019
    2        8.813422
    3       11.177866
    4       12.720386
    5       14.761245
    6       20.720269
    7       25.358527
    8       30.708608
    9       32.697188
 
 -0.3125000E+00  0.3125000E+00  0.6250000E-01  0.2343750E-01
    1        8.581003
    2        9.475041
    3       10.352927
    4       12.317681
    5       13.950791
    6       20.985286
    7       26.139148
    8       29.035666
    9       34.493703
 
 -0.1875000E+00  0.3125000E+00  0.6250000E-01  0.2343750E-01
    1        8.899882
    2        9.677275
    3       10.043976
    4       11.972651
    5       13.127381
    6       17.817665
    7       28.688568
    8       31.122050
    9       35.154833
 
 -0.6250000E-01  0.3125000E+00  0.6250000E-01  0.2343750E-01
    1        7.813733
    2       10.502798
    3       10.646130
    4       11.150067
    5       13.374278
    6       14.821915
    7       29.404062
    8       33.331584
    9       37.870317
 
  0.4375000E+00  0.4375000E+00  0.6250000E-01  0.1171875E-01
    1        7.133675
    2        7.462085
    3       14.012099
    4       14.190368
    5       14.848678
    6       17.016769
    7       29.880018
    8       30.588416
    9       30.699563
 
 -0.4375000E+00  0.4375000E+00  0.6250000E-01  0.2343750E-01
    1        7.166896
    2        7.606835
    3       13.243771
    4       14.130877
    5       15.109353
    6       20.149048
    7       27.752795
    8       28.750381
    9       29.909208
 
 -0.3125000E+00  0.4375000E+00  0.6250000E-01  0.2343750E-01
    1        7.787831
    2        8.639252
    3       11.491940
    4       13.124025
    5       14.677154
    6       22.975828
    7       24.530676
    8       28.545835
    9       32.240323
 
 -0.1875000E+00  0.4375000E+00  0.6250000E-01  0.2343750E-01
    1        8.354008
    2        9.332118
    3       11.025935
    4       11.783907
    5       14.362887
    6       20.558603
    7       24.419703
    8       31.347517
    9       34.423129
 
 -0.6250000E-01  0.4375000E+00  0.6250000E-01  0.2343750E-01
    1        7.530875
    2       10.092526
    3       10.790200
    4       12.442100
    5       14.521113
    6       17.017915
    7       25.212713
    8       31.940009
    9       36.680999
 
 -0.4375000E+00 -0.4375000E+00  0.6250000E-01  0.1171875E-01
    1        6.859631
    2        7.263524
    3       14.544876
    4       14.620556
    5       15.144432
    6       18.548407
    7       28.636699
    8       29.051866
    9       29.708366
 
 -0.3125000E+00 -0.4375000E+00  0.6250000E-01  0.2343750E-01
    1        7.436175
    2        7.798269
    3       12.610496
    4       13.924068
    5       14.792164
    6       18.511011
    7       28.679124
    8       30.546282
    9       30.760997
 
 -0.1875000E+00 -0.4375000E+00  0.6250000E-01  0.2343750E-01
    1        8.086788
    2        9.246090
    3       10.800047
    4       12.131197
    5       14.666412
    6       18.304234
    7       26.640003
    8       32.557948
    9       33.821956
 
 -0.3125000E+00 -0.3125000E+00  0.6250000E-01  0.1171875E-01
    1        7.590287
    2        7.845114
    3       12.990687
    4       13.496932
    5       14.459776
    6       15.108154
    7       31.544316
    8       32.450620
    9       32.806396
 
 -0.1875000E+00 -0.3125000E+00  0.6250000E-01  0.2343750E-01
    1        8.215681
    2        8.701030
    3       10.984262
    4       12.503884
    5       13.602083
    6       15.009387
    7       31.520788
    8       33.782197
    9       35.139038
 
 -0.1875000E+00 -0.1875000E+00  0.6250000E-01  0.1171875E-01
    1        7.740554
    2        8.986337
    3       11.367005
    4       11.881791
    5       12.440882
    6       13.636239
    7       34.035089
    8       35.237777
    9       36.731826
 
  0.1875000E+00  0.1875000E+00  0.1875000E+00  0.3906250E-02
    1        6.806317
    2       10.128415
    3       10.900993
    4       10.900993
    5       12.821158
    6       12.821158
    7       33.124294
    8       33.433506
    9       40.201298
 
  0.3125000E+00  0.1875000E+00  0.1875000E+00  0.1171875E-01
    1        7.784668
    2        9.689585
    3       10.925462
    4       11.357533
    5       12.164183
    6       14.105618
    7       32.081215
    8       33.993831
    9       38.393634
 
  0.4375000E+00  0.1875000E+00  0.1875000E+00  0.1171875E-01
    1        8.672757
    2        9.785055
    3       10.431575
    4       11.597321
    5       12.544568
    6       16.363804
    7       29.873844
    8       32.382048
    9       36.188094
 
 -0.4375000E+00  0.1875000E+00  0.1875000E+00  0.1171875E-01
    1        8.196500
    2        9.665072
    3       11.359189
    4       11.377242
    5       13.992619
    6       18.971083
    7       25.441309
    8       31.791076
    9       35.189964
 
 -0.3125000E+00  0.1875000E+00  0.1875000E+00  0.1171875E-01
    1        7.939794
    2        9.564424
    3       11.258634
    4       11.503423
    5       14.830595
    6       18.664197
    7       25.115444
    8       32.356382
    9       35.731581
 
 -0.1875000E+00  0.1875000E+00  0.1875000E+00  0.1171875E-01
    1        8.045761
    2        9.316903
    3       10.761035
    4       11.858992
    5       14.458347
    6       15.109432
    7       29.727125
    8       33.914276
    9       35.695452
 
  0.3125000E+00  0.3125000E+00  0.1875000E+00  0.1171875E-01
    1        7.862664
    2        9.796572
    3       10.706122
    4       11.369853
    5       13.542567
    6       13.921106
    7       30.934205
    8       34.148554
    9       37.941694
 
  0.4375000E+00  0.3125000E+00  0.1875000E+00  0.2343750E-01
    1        8.596789
    2        9.328144
    3       10.160993
    4       12.316188
    5       13.255210
    6       16.401611
    7       29.999809
    8       32.510669
    9       35.074837
 
 -0.4375000E+00  0.3125000E+00  0.1875000E+00  0.2343750E-01
    1        9.025242
    2        9.154017
    3        9.933459
    4       12.501200
    5       13.887821
    6       19.597023
    7       27.456988
    8       29.972964
    9       33.505548
 
 -0.3125000E+00  0.3125000E+00  0.1875000E+00  0.2343750E-01
    1        8.541240
    2        9.051356
    3       10.539394
    4       12.346387
    5       14.571706
    6       21.774303
    7       24.379062
    8       31.141895
    9       31.957189
 
 -0.1875000E+00  0.3125000E+00  0.1875000E+00  0.2343750E-01
    1        8.372349
    2        8.791770
    3       10.561439
    4       12.986425
    5       14.024583
    6       18.123084
    7       28.709532
    8       31.200897
    9       33.004690
 
  0.4375000E+00  0.4375000E+00  0.1875000E+00  0.1171875E-01
    1        7.865772
    2        8.687318
    3       11.394298
    4       12.483299
    5       14.830806
    6       17.161120
    7       28.237255
    8       32.687344
    9       33.733770
 
 -0.4375000E+00  0.4375000E+00  0.1875000E+00  0.2343750E-01
    1        7.979962
    2        8.412664
    3       11.199506
    4       13.381473
    5       14.661913
    6       20.207122
    7       27.486215
    8       30.017911
    9       30.731084
 
 -0.3125000E+00  0.4375000E+00  0.1875000E+00  0.2343750E-01
    1        8.223633
    2        9.143932
    3       10.313955
    4       12.778419
    5       15.092510
    6       23.964597
    7       25.550400
    8       28.239610
    9       29.230150
 
 -0.1875000E+00  0.4375000E+00  0.1875000E+00  0.2343750E-01
    1        8.529889
    2        9.156402
    3       10.098326
    4       12.767458
    5       14.607817
    6       21.757555
    7       26.300850
    8       29.168471
    9       31.096886
 
 -0.4375000E+00 -0.4375000E+00  0.1875000E+00  0.1171875E-01
    1        7.352710
    2        8.012017
    3       12.618437
    4       13.689902
    5       14.856504
    6       21.343240
    7       25.971442
    8       28.639225
    9       31.593250
 
 -0.3125000E+00 -0.4375000E+00  0.1875000E+00  0.2343750E-01
    1        7.705594
    2        8.253573
    3       11.703120
    4       13.409786
    5       15.096164
    6       22.091543
    7       26.718406
    8       28.490989
    9       29.589229
 
 -0.3125000E+00 -0.3125000E+00  0.1875000E+00  0.1171875E-01
    1        7.567067
    2        8.227310
    3       12.132136
    4       13.155390
    5       14.951612
    6       19.437669
    7       26.833601
    8       30.584733
    9       32.324215
 
  0.3125000E+00  0.3125000E+00  0.3125000E+00  0.3906250E-02
    1        7.414842
    2       10.754066
    3       10.754066
    4       11.594400
    5       13.610502
    6       13.610502
    7       29.126626
    8       32.920420
    9       39.864029
 
  0.4375000E+00  0.3125000E+00  0.3125000E+00  0.1171875E-01
    1        7.894189
    2       10.296936
    3       11.019380
    4       11.305721
    5       13.322102
    6       16.058059
    7       28.026249
    8       32.729287
    9       36.603479
 
 -0.4375000E+00  0.3125000E+00  0.3125000E+00  0.1171875E-01
    1        8.792798
    2        9.659793
    3       10.359316
    4       11.919967
    5       13.389859
    6       19.287940
    7       27.456405
    8       29.864002
    9       35.582212
 
 -0.3125000E+00  0.3125000E+00  0.3125000E+00  0.1171875E-01
    1        8.072939
    2        9.183766
    3       10.995261
    4       12.666643
    5       14.225786
    6       22.449912
    7       24.659273
    8       28.624028
    9       34.706685
 
  0.4375000E+00  0.4375000E+00  0.3125000E+00  0.1171875E-01
    1        7.673981
    2       10.070341
    3       11.036420
    4       11.574275
    5       14.718656
    6       16.313455
    7       26.433645
    8       32.458037
    9       37.025315
 
 -0.4375000E+00  0.4375000E+00  0.3125000E+00  0.2343750E-01
    1        8.388825
    2        9.330440
    3       10.805777
    4       11.866070
    5       14.377155
    6       19.508447
    7       25.378701
    8       32.113448
    9       33.632818
 
 -0.3125000E+00  0.4375000E+00  0.3125000E+00  0.2343750E-01
    1        8.381310
    2        9.222764
    3       10.343252
    4       12.648566
    5       14.608246
    6       23.056824
    7       24.882969
    8       28.648291
    9       31.759899
 
 -0.4375000E+00 -0.4375000E+00  0.3125000E+00  0.1171875E-01
    1        8.090978
    2        9.243469
    3       11.072376
    4       12.108181
    5       14.605764
    6       21.107134
    7       24.168618
    8       30.868513
    9       35.004831
 
  0.4375000E+00  0.4375000E+00  0.4375000E+00  0.3906250E-02
    1        7.155075
    2       10.435613
    3       10.435613
    4       14.545737
    5       14.587569
    6       14.587569
    7       25.226076
    8       31.329343
    9       38.560491
 
 -0.4375000E+00  0.4375000E+00  0.4375000E+00  0.1171875E-01
    1        7.604975
    2        9.957491
    3       10.840306
    4       12.461468
    5       14.528890
    6       18.000283
    7       24.431042
    8       31.901427
    9       36.234732
