<?xml version="1.0" encoding="ISO-8859-1"?>
<modeling>
 <generator>
  <i name="program" type="string">vasp </i>
  <i name="version" type="string">5.3.5  </i>
  <i name="subversion" type="string">31Mar14 (build Jan 09 2015 16:57:47) complex                          serial </i>
  <i name="platform" type="string">LinuxIFC </i>
  <i name="date" type="string">2015 03 24 </i>
  <i name="time" type="string">14:25:56 </i>
 </generator>
 <incar>
  <i type="string" name="PREC">normal</i>
  <i type="int" name="IBRION">     2</i>
  <i type="int" name="NSW">    30</i>
  <i type="int" name="ISIF">     2</i>
  <i name="ENCUT">    350.00000000</i>
 </incar>
 <kpoints>
  <generation param="Monkhorst-Pack">
   <v type="int" name="divisions">       8        8        8 </v>
   <v name="usershift">      0.00000000       0.00000000       0.00000000 </v>
   <v name="genvec1">      0.12500000       0.00000000       0.00000000 </v>
   <v name="genvec2">      0.00000000       0.12500000       0.00000000 </v>
   <v name="genvec3">      0.00000000       0.00000000       0.12500000 </v>
   <v name="shift">      0.50000000       0.50000000       0.50000000 </v>
  </generation>
  <varray name="kpointlist" >
   <v>       0.06250000       0.06250000       0.06250000 </v>
   <v>       0.18750000       0.06250000       0.06250000 </v>
   <v>       0.31250000       0.06250000       0.06250000 </v>
   <v>       0.43750000       0.06250000       0.06250000 </v>
   <v>      -0.43750000       0.06250000       0.06250000 </v>
   <v>      -0.31250000       0.06250000       0.06250000 </v>
   <v>      -0.18750000       0.06250000       0.06250000 </v>
   <v>      -0.06250000       0.06250000       0.06250000 </v>
   <v>       0.18750000       0.18750000       0.06250000 </v>
   <v>       0.31250000       0.18750000       0.06250000 </v>
   <v>       0.43750000       0.18750000       0.06250000 </v>
   <v>      -0.43750000       0.18750000       0.06250000 </v>
   <v>      -0.31250000       0.18750000       0.06250000 </v>
   <v>      -0.18750000       0.18750000       0.06250000 </v>
   <v>      -0.06250000       0.18750000       0.06250000 </v>
   <v>       0.31250000       0.31250000       0.06250000 </v>
   <v>       0.43750000       0.31250000       0.06250000 </v>
   <v>      -0.43750000       0.31250000       0.06250000 </v>
   <v>      -0.31250000       0.31250000       0.06250000 </v>
   <v>      -0.18750000       0.31250000       0.06250000 </v>
   <v>      -0.06250000       0.31250000       0.06250000 </v>
   <v>       0.43750000       0.43750000       0.06250000 </v>
   <v>      -0.43750000       0.43750000       0.06250000 </v>
   <v>      -0.31250000       0.43750000       0.06250000 </v>
   <v>      -0.18750000       0.43750000       0.06250000 </v>
   <v>      -0.06250000       0.43750000       0.06250000 </v>
   <v>      -0.43750000      -0.43750000       0.06250000 </v>
   <v>      -0.31250000      -0.43750000       0.06250000 </v>
   <v>      -0.18750000      -0.43750000       0.06250000 </v>
   <v>      -0.31250000      -0.31250000       0.06250000 </v>
   <v>      -0.18750000      -0.31250000       0.06250000 </v>
   <v>      -0.18750000      -0.18750000       0.06250000 </v>
   <v>       0.18750000       0.18750000       0.18750000 </v>
   <v>       0.31250000       0.18750000       0.18750000 </v>
   <v>       0.43750000       0.18750000       0.18750000 </v>
   <v>      -0.43750000       0.18750000       0.18750000 </v>
   <v>      -0.31250000       0.18750000       0.18750000 </v>
   <v>      -0.18750000       0.18750000       0.18750000 </v>
   <v>       0.31250000       0.31250000       0.18750000 </v>
   <v>       0.43750000       0.31250000       0.18750000 </v>
   <v>      -0.43750000       0.31250000       0.18750000 </v>
   <v>      -0.31250000       0.31250000       0.18750000 </v>
   <v>      -0.18750000       0.31250000       0.18750000 </v>
   <v>       0.43750000       0.43750000       0.18750000 </v>
   <v>      -0.43750000       0.43750000       0.18750000 </v>
   <v>      -0.31250000       0.43750000       0.18750000 </v>
   <v>      -0.18750000       0.43750000       0.18750000 </v>
   <v>      -0.43750000      -0.43750000       0.18750000 </v>
   <v>      -0.31250000      -0.43750000       0.18750000 </v>
   <v>      -0.31250000      -0.31250000       0.18750000 </v>
   <v>       0.31250000       0.31250000       0.31250000 </v>
   <v>       0.43750000       0.31250000       0.31250000 </v>
   <v>      -0.43750000       0.31250000       0.31250000 </v>
   <v>      -0.31250000       0.31250000       0.31250000 </v>
   <v>       0.43750000       0.43750000       0.31250000 </v>
   <v>      -0.43750000       0.43750000       0.31250000 </v>
   <v>      -0.31250000       0.43750000       0.31250000 </v>
   <v>      -0.43750000      -0.43750000       0.31250000 </v>
   <v>       0.43750000       0.43750000       0.43750000 </v>
   <v>      -0.43750000       0.43750000       0.43750000 </v>
  </varray>
  <varray name="weights" >
   <v>       0.00390625 </v>
   <v>       0.01171875 </v>
   <v>       0.01171875 </v>
   <v>       0.01171875 </v>
   <v>       0.01171875 </v>
   <v>       0.01171875 </v>
   <v>       0.01171875 </v>
   <v>       0.01171875 </v>
   <v>       0.01171875 </v>
   <v>       0.02343750 </v>
   <v>       0.02343750 </v>
   <v>       0.02343750 </v>
   <v>       0.02343750 </v>
   <v>       0.02343750 </v>
   <v>       0.02343750 </v>
   <v>       0.01171875 </v>
   <v>       0.02343750 </v>
   <v>       0.02343750 </v>
   <v>       0.02343750 </v>
   <v>       0.02343750 </v>
   <v>       0.02343750 </v>
   <v>       0.01171875 </v>
   <v>       0.02343750 </v>
   <v>       0.02343750 </v>
   <v>       0.02343750 </v>
   <v>       0.02343750 </v>
   <v>       0.01171875 </v>
   <v>       0.02343750 </v>
   <v>       0.02343750 </v>
   <v>       0.01171875 </v>
   <v>       0.02343750 </v>
   <v>       0.01171875 </v>
   <v>       0.00390625 </v>
   <v>       0.01171875 </v>
   <v>       0.01171875 </v>
   <v>       0.01171875 </v>
   <v>       0.01171875 </v>
   <v>       0.01171875 </v>
   <v>       0.01171875 </v>
   <v>       0.02343750 </v>
   <v>       0.02343750 </v>
   <v>       0.02343750 </v>
   <v>       0.02343750 </v>
   <v>       0.01171875 </v>
   <v>       0.02343750 </v>
   <v>       0.02343750 </v>
   <v>       0.02343750 </v>
   <v>       0.01171875 </v>
   <v>       0.02343750 </v>
   <v>       0.01171875 </v>
   <v>       0.00390625 </v>
   <v>       0.01171875 </v>
   <v>       0.01171875 </v>
   <v>       0.01171875 </v>
   <v>       0.01171875 </v>
   <v>       0.02343750 </v>
   <v>       0.02343750 </v>
   <v>       0.01171875 </v>
   <v>       0.00390625 </v>
   <v>       0.01171875 </v>
  </varray>
 </kpoints>
 <parameters>
  <separator name="general" >
   <i type="string" name="SYSTEM">unknown system</i>
   <i type="logical" name="LCOMPAT"> F  </i>
  </separator>
  <separator name="electronic" >
   <i type="string" name="PREC">normal</i>
   <i name="ENMAX">    350.00000000</i>
   <i name="ENAUG">    416.23000000</i>
   <i name="EDIFF">      0.00010000</i>
   <i type="int" name="IALGO">    38</i>
   <i type="int" name="IWAVPR">    11</i>
   <i type="int" name="NBANDS">     9</i>
   <i name="NELECT">     10.00000000</i>
   <i type="int" name="TURBO">     0</i>
   <i type="int" name="IRESTART">     0</i>
   <i type="int" name="NREBOOT">     0</i>
   <i type="int" name="NMIN">     0</i>
   <i name="EREF">      0.00000000</i>
   <separator name="electronic smearing" >
    <i type="int" name="ISMEAR">     1</i>
    <i name="SIGMA">      0.20000000</i>
    <i name="KSPACING">      0.50000000</i>
    <i type="logical" name="KGAMMA"> T  </i>
   </separator>
   <separator name="electronic projectors" >
    <i type="logical" name="LREAL"> F  </i>
    <v name="ROPT">      0.00000000</v>
    <i type="int" name="LMAXPAW">  -100</i>
    <i type="int" name="LMAXMIX">     2</i>
    <i type="logical" name="NLSPLINE"> F  </i>
   </separator>
   <separator name="electronic startup" >
    <i type="int" name="ISTART">     0</i>
    <i type="int" name="ICHARG">     2</i>
    <i type="int" name="INIWAV">     1</i>
   </separator>
   <separator name="electronic spin" >
    <i type="int" name="ISPIN">     1</i>
    <i type="logical" name="LNONCOLLINEAR"> F  </i>
    <v name="MAGMOM">      1.00000000</v>
    <i name="NUPDOWN">     -1.00000000</i>
    <i type="logical" name="LSORBIT"> F  </i>
    <v name="SAXIS">      0.00000000      0.00000000      1.00000000</v>
    <i type="logical" name="LSPIRAL"> F  </i>
    <v name="QSPIRAL">      0.00000000      0.00000000      0.00000000</v>
    <i type="logical" name="LZEROZ"> F  </i>
   </separator>
   <separator name="electronic exchange-correlation" >
    <i type="logical" name="LASPH"> F  </i>
    <i type="logical" name="LMETAGGA"> F  </i>
   </separator>
   <separator name="electronic convergence" >
    <i type="int" name="NELM">    60</i>
    <i type="int" name="NELMDL">    -5</i>
    <i type="int" name="NELMIN">     2</i>
    <i name="ENINI">    350.00000000</i>
    <separator name="electronic convergence detail" >
     <i type="logical" name="LDIAG"> T  </i>
     <i type="logical" name="LSUBROT"> F  </i>
     <i name="WEIMIN">      0.00100000</i>
     <i name="EBREAK">      0.00000278</i>
     <i name="DEPER">      0.30000000</i>
     <i type="int" name="NRMM">     4</i>
     <i name="TIME">      0.40000000</i>
    </separator>
   </separator>
   <separator name="electronic mixer" >
    <i name="AMIX">      0.40000000</i>
    <i name="BMIX">      1.00000000</i>
    <i name="AMIN">      0.10000000</i>
    <i name="AMIX_MAG">      1.60000000</i>
    <i name="BMIX_MAG">      1.00000000</i>
    <separator name="electronic mixer details" >
     <i type="int" name="IMIX">     4</i>
     <i type="int" name="MAXMIX">   -45</i>
     <i name="WC">    100.00000000</i>
     <i type="int" name="INIMIX">     1</i>
     <i type="int" name="MIXPRE">     1</i>
     <i type="int" name="MREMOVE">     5</i>
    </separator>
   </separator>
   <separator name="electronic dipolcorrection" >
    <i type="logical" name="LDIPOL"> F  </i>
    <i type="logical" name="LMONO"> F  </i>
    <i type="int" name="IDIPOL">     0</i>
    <i name="EPSILON">      1.00000000</i>
    <v name="DIPOL">   -100.00000000   -100.00000000   -100.00000000</v>
    <i name="EFIELD">      0.00000000</i>
   </separator>
  </separator>
  <separator name="grids" >
   <i type="int" name="NGX">    12</i>
   <i type="int" name="NGY">    12</i>
   <i type="int" name="NGZ">    12</i>
   <i type="int" name="NGXF">    24</i>
   <i type="int" name="NGYF">    24</i>
   <i type="int" name="NGZF">    24</i>
   <i type="logical" name="ADDGRID"> F  </i>
  </separator>
  <separator name="ionic" >
   <i type="int" name="NSW">    30</i>
   <i type="int" name="IBRION">     2</i>
   <i type="int" name="ISIF">     2</i>
   <i name="PSTRESS">      0.00000000</i>
   <i name="EDIFFG">      0.00100000</i>
   <i type="int" name="NFREE">     1</i>
   <i name="POTIM">      0.50000000</i>
   <i name="SMASS">     -3.00000000</i>
   <i name="SCALEE">      1.00000000</i>
  </separator>
  <separator name="ionic md" >
   <i name="TEBEG">      0.00010000</i>
   <i name="TEEND">      0.00010000</i>
   <i type="int" name="NBLOCK">     1</i>
   <i type="int" name="KBLOCK">    30</i>
   <i type="int" name="NPACO">   256</i>
   <i name="APACO">     16.00000000</i>
  </separator>
  <separator name="symmetry" >
   <i type="int" name="ISYM">     2</i>
   <i name="SYMPREC">      0.00001000</i>
  </separator>
  <separator name="dos" >
   <i type="logical" name="LORBIT"> F  </i>
   <v name="RWIGS">     -1.00000000</v>
   <i type="int" name="NEDOS">   301</i>
   <i name="EMIN">     10.00000000</i>
   <i name="EMAX">    -10.00000000</i>
   <i name="EFERMI">      0.00000000</i>
  </separator>
  <separator name="writing" >
   <i type="int" name="NWRITE">     2</i>
   <i type="logical" name="LWAVE"> T  </i>
   <i type="logical" name="LCHARG"> T  </i>
   <i type="logical" name="LPARD"> F  </i>
   <i type="logical" name="LVTOT"> F  </i>
   <i type="logical" name="LVHAR"> F  </i>
   <i type="logical" name="LELF"> F  </i>
   <i type="logical" name="LOPTICS"> F  </i>
   <v name="STM">      0.00000000      0.00000000      0.00000000      0.00000000      0.00000000      0.00000000      0.00000000</v>
  </separator>
  <separator name="performance" >
   <i type="int" name="NPAR">     1</i>
   <i type="int" name="NSIM">     4</i>
   <i type="int" name="NBLK">    -1</i>
   <i type="logical" name="LPLANE"> T  </i>
   <i type="logical" name="LSCALAPACK"> F  </i>
   <i type="logical" name="LSCAAWARE"> F  </i>
   <i type="logical" name="LSCALU"> F  </i>
   <i type="logical" name="LASYNC"> F  </i>
   <i type="logical" name="LORBITALREAL"> F  </i>
  </separator>
  <separator name="miscellaneous" >
   <i type="int" name="IDIOT">     3</i>
   <i type="logical" name="LMUSIC"> F  </i>
   <v name="POMASS">    106.42000000</v>
   <v name="DARWINR">      0.00000000</v>
   <v name="DARWINV">      1.00000000</v>
   <i type="logical" name="LCORR"> T  </i>
  </separator>
  <i type="logical" name="GGA_COMPAT"> T  </i>
  <i type="logical" name="LBERRY"> F  </i>
  <i type="int" name="ICORELEVEL">     0</i>
  <i type="logical" name="LDAU"> F  </i>
  <i type="int" name="I_CONSTRAINED_M">     0</i>
  <separator name="electronic exchange-correlation" >
   <i type="string" name="GGA">--</i>
   <i type="int" name="VOSKOWN">     0</i>
   <i type="logical" name="LHFCALC"> F  </i>
   <i type="string" name="PRECFOCK"></i>
   <i type="logical" name="LSYMGRAD"> F  </i>
   <i type="logical" name="LHFONE"> F  </i>
   <i type="logical" name="LRHFCALC"> F  </i>
   <i type="logical" name="LTHOMAS"> F  </i>
   <i type="logical" name="LMODELHF"> F  </i>
   <i name="ENCUT4O">     -1.00000000</i>
   <i type="int" name="EXXOEP">     0</i>
   <i type="int" name="FOURORBIT">     0</i>
   <i name="AEXX">      0.00000000</i>
   <i name="HFALPHA">      0.00000000</i>
   <i name="MCALPHA">      0.00000000</i>
   <i name="ALDAX">      1.00000000</i>
   <i name="AGGAX">      1.00000000</i>
   <i name="ALDAC">      1.00000000</i>
   <i name="AGGAC">      1.00000000</i>
   <i type="int" name="NKREDX">     1</i>
   <i type="int" name="NKREDY">     1</i>
   <i type="int" name="NKREDZ">     1</i>
   <i type="logical" name="SHIFTRED"> F  </i>
   <i type="logical" name="ODDONLY"> F  </i>
   <i type="logical" name="EVENONLY"> F  </i>
   <i type="int" name="LMAXFOCK">     0</i>
   <i type="int" name="NMAXFOCKAE">     0</i>
   <i type="logical" name="LFOCKAEDFT"> F  </i>
   <i name="HFSCREEN">      0.00000000</i>
   <i name="HFSCREENC">      0.00000000</i>
   <i type="int" name="NBANDSGWLOW">     0</i>
  </separator>
  <separator name="vdW DFT" >
   <i type="logical" name="LUSE_VDW"> F  </i>
   <i name="Zab_VDW">     -0.84910000</i>
   <i name="PARAM1">      0.12340000</i>
   <i name="PARAM2">      1.00000000</i>
   <i name="PARAM3">      0.00000000</i>
  </separator>
  <separator name="model GW" >
   <i type="int" name="MODEL_GW">     0</i>
   <i name="MODEL_EPS0">      6.87548826</i>
   <i name="MODEL_ALPHA">      1.00000000</i>
  </separator>
  <separator name="linear response parameters" >
   <i type="logical" name="LEPSILON"> F  </i>
   <i type="logical" name="LRPA"> F  </i>
   <i type="logical" name="LNABLA"> F  </i>
   <i type="logical" name="LVEL"> F  </i>
   <i type="int" name="KINTER">     0</i>
   <i name="CSHIFT">      0.10000000</i>
   <i name="OMEGAMAX">     -1.00000000</i>
   <i name="DEG_THRESHOLD">      0.00200000</i>
  </separator>
  <separator name="orbital magnetization" >
   <i type="logical" name="NUCIND"> F  </i>
   <v name="MAGPOS">      0.00000000      0.00000000      0.00000000</v>
   <i type="logical" name="LNICSALL"> T  </i>
   <i type="logical" name="ORBITALMAG"> F  </i>
   <i type="logical" name="LMAGBLOCH"> F  </i>
   <i type="logical" name="LCHIMAG"> F  </i>
   <i type="logical" name="LGAUGE"> T  </i>
   <i type="int" name="MAGATOM">     0</i>
   <v name="MAGDIPOL">      0.00000000      0.00000000      0.00000000</v>
   <v name="AVECCONST">      0.00000000      0.00000000      0.00000000</v>
  </separator>
  <separator name="response functions" >
   <i type="logical" name="LADDER"> F  </i>
   <i type="logical" name="LFXC"> F  </i>
   <i type="logical" name="LHARTREE"> T  </i>
   <i type="int" name="IBSE">     0</i>
   <i type="logical" name="LTCTE"> F  </i>
   <i type="logical" name="LTETE"> F  </i>
   <i type="logical" name="LTRIPLET"> F  </i>
   <i type="logical" name="LFXCEPS"> F  </i>
   <i type="logical" name="LFXHEG"> F  </i>
   <i type="logical" name="L2ORDER"> F  </i>
   <i type="logical" name="LUSEW"> F  </i>
   <i name="ENCUTGW">     -2.00000000</i>
   <i name="ENCUTGWSOFT">     -2.00000000</i>
   <i name="ENCUTLF">     -1.00000000</i>
   <i type="int" name="LMAXMP2">    -1</i>
   <i name="SCISSOR">      0.00000000</i>
   <i type="int" name="NOMEGA">     0</i>
   <i type="int" name="NOMEGAR">     0</i>
   <i type="int" name="NBANDSGW">    -1</i>
   <i type="int" name="NBANDSO">    -1</i>
   <i type="int" name="NBANDSV">    -1</i>
   <i type="int" name="NELM">     1</i>
   <i type="int" name="DIM">     3</i>
   <i type="int" name="ANTIRES">     0</i>
   <i name="OMEGAMAX">    -30.00000000</i>
   <i name="OMEGAMIN">    -30.00000000</i>
   <i name="OMEGATL">   -200.00000000</i>
   <i type="int" name="OMEGAGRID">     0</i>
   <i name="CSHIFT">     -0.10000000</i>
   <i type="logical" name="SELFENERGY"> F  </i>
   <i type="logical" name="LSPECTRAL"> F  </i>
   <i type="logical" name="ODDONLYGW"> F  </i>
   <i type="logical" name="EVENONLYGW"> F  </i>
   <i type="int" name="NKREDLFX">     1</i>
   <i type="int" name="NKREDLFY">     1</i>
   <i type="int" name="NKREDLFZ">     1</i>
   <i type="int" name="MAXMEM">  1800</i>
   <i type="int" name="TELESCOPE">     0</i>
   <i type="int" name="TAUPAR">     1</i>
  </separator>
  <separator name="External order field" >
   <i name="OFIELD_KAPPA">      0.00000000</i>
   <v name="OFIELD_K">      0.00000000      0.00000000      0.00000000</v>
   <i name="OFIELD_Q6_NEAR">      0.00000000</i>
   <i name="OFIELD_Q6_FAR">      0.00000000</i>
   <i name="OFIELD_A">      0.00000000</i>
  </separator>
 </parameters>
 <atominfo>
  <atoms>       1 </atoms>
  <types>       1 </types>
  <array name="atoms" >
   <dimension dim="1">ion</dimension>
   <field type="string">element</field>
   <field type="int">atomtype</field>
   <set>
    <rc><c>Pd</c><c>   1</c></rc>
   </set>
  </array>
  <array name="atomtypes" >
   <dimension dim="1">type</dimension>
   <field type="int">atomspertype</field>
   <field type="string">element</field>
   <field>mass</field>
   <field>valence</field>
   <field type="string">pseudopotential</field>
   <set>
    <rc><c>   1</c><c>Pd</c><c>    106.42000000</c><c>     10.00000000</c><c>  PAW_PBE Pd 04Jan2005                  </c></rc>
   </set>
  </array>
 </atominfo>
 <structure name="initialpos" >
  <crystal>
   <varray name="basis" >
    <v>       2.53059375       0.00000000       0.00000000 </v>
    <v>       1.26529687       2.19155847       0.00000000 </v>
    <v>       1.26529687       0.73051949       2.06622114 </v>
   </varray>
   <i name="volume">     11.45914711 </i>
   <varray name="rec_basis" >
    <v>       0.39516418      -0.22814814      -0.16132510 </v>
    <v>       0.00000000       0.45629629      -0.16132510 </v>
    <v>       0.00000000       0.00000000       0.48397530 </v>
   </varray>
  </crystal>
  <varray name="positions" >
   <v>       0.00000000       0.00000000       0.00000000 </v>
  </varray>
 </structure>
 <calculation>
  <scstep>
   <time name="dav">    0.31    0.31</time>
   <time name="total">    0.34    0.34</time>
   <energy>
    <i name="alphaZ">     56.87615701 </i>
    <i name="ewald">   -922.39071822 </i>
    <i name="hartreedc">    -96.37212779 </i>
    <i name="XCdc">    -28.13807192 </i>
    <i name="pawpsdc">    806.73831454 </i>
    <i name="pawaedc">   -744.51602449 </i>
    <i name="eentropy">      0.00290001 </i>
    <i name="bandstr">    145.77287509 </i>
    <i name="atom">    809.72612850 </i>
    <i name="e_fr_energy">     27.69943274 </i>
    <i name="e_wo_entrp">     27.69653273 </i>
    <i name="e_0_energy">     27.69846607 </i>
   </energy>
  </scstep>
  <scstep>
   <time name="dav">    0.34    0.34</time>
   <time name="total">    0.34    0.35</time>
   <energy>
    <i name="e_fr_energy">     -4.34976554 </i>
    <i name="e_wo_entrp">     -4.34381891 </i>
    <i name="e_0_energy">     -4.34778333 </i>
   </energy>
  </scstep>
  <scstep>
   <time name="dav">    0.36    0.36</time>
   <time name="total">    0.36    0.38</time>
   <energy>
    <i name="e_fr_energy">     -4.57242244 </i>
    <i name="e_wo_entrp">     -4.56610936 </i>
    <i name="e_0_energy">     -4.57031808 </i>
   </energy>
  </scstep>
  <scstep>
   <time name="dav">    0.36    0.36</time>
   <time name="total">    0.37    0.38</time>
   <energy>
    <i name="e_fr_energy">     -4.57328702 </i>
    <i name="e_wo_entrp">     -4.56696519 </i>
    <i name="e_0_energy">     -4.57117975 </i>
   </energy>
  </scstep>
  <scstep>
   <time name="dav">    0.36    0.36</time>
   <time name="total">    0.39    0.41</time>
   <energy>
    <i name="e_fr_energy">     -4.57329333 </i>
    <i name="e_wo_entrp">     -4.56697137 </i>
    <i name="e_0_energy">     -4.57118601 </i>
   </energy>
  </scstep>
  <scstep>
   <time name="dav">    0.32    0.32</time>
   <time name="total">    0.37    0.38</time>
   <energy>
    <i name="e_fr_energy">     -4.32113893 </i>
    <i name="e_wo_entrp">     -4.31835028 </i>
    <i name="e_0_energy">     -4.32020938 </i>
   </energy>
  </scstep>
  <scstep>
   <time name="dav">    0.43    0.43</time>
   <time name="total">    0.48    0.49</time>
   <energy>
    <i name="e_fr_energy">     -4.27633983 </i>
    <i name="e_wo_entrp">     -4.27358973 </i>
    <i name="e_0_energy">     -4.27542313 </i>
   </energy>
  </scstep>
  <scstep>
   <time name="dav">    0.34    0.34</time>
   <time name="total">    0.40    0.43</time>
   <energy>
    <i name="e_fr_energy">     -4.27056335 </i>
    <i name="e_wo_entrp">     -4.26780707 </i>
    <i name="e_0_energy">     -4.26964459 </i>
   </energy>
  </scstep>
  <scstep>
   <time name="dav">    0.24    0.24</time>
   <time name="total">    0.27    0.32</time>
   <energy>
    <i name="alphaZ">     56.87615701 </i>
    <i name="ewald">   -922.39071822 </i>
    <i name="hartreedc">    -85.89472631 </i>
    <i name="XCdc">    -28.38616771 </i>
    <i name="pawpsdc">   1189.71736024 </i>
    <i name="pawaedc">  -1132.61567060 </i>
    <i name="eentropy">     -0.00275485 </i>
    <i name="bandstr">    108.69982471 </i>
    <i name="atom">    809.72612850 </i>
    <i name="e_fr_energy">     -4.27056723 </i>
    <i name="e_wo_entrp">     -4.26781238 </i>
    <i name="e_0_energy">     -4.26964895 </i>
   </energy>
  </scstep>
  <structure>
   <crystal>
    <varray name="basis" >
     <v>       2.53059375       0.00000000       0.00000000 </v>
     <v>       1.26529687       2.19155847       0.00000000 </v>
     <v>       1.26529687       0.73051949       2.06622114 </v>
    </varray>
    <i name="volume">     11.45914711 </i>
    <varray name="rec_basis" >
     <v>       0.39516418      -0.22814814      -0.16132510 </v>
     <v>       0.00000000       0.45629629      -0.16132510 </v>
     <v>       0.00000000       0.00000000       0.48397530 </v>
    </varray>
   </crystal>
   <varray name="positions" >
    <v>       0.00000000       0.00000000       0.00000000 </v>
   </varray>
  </structure>
  <varray name="forces" >
   <v>       0.00000000       0.00000000       0.00000000 </v>
  </varray>
  <varray name="stress" >
   <v>    1045.71497477       0.00000000       0.00000000 </v>
   <v>       0.00000000    1045.71497477       0.00000000 </v>
   <v>       0.00000000       0.00000000    1045.71497477 </v>
  </varray>
  <energy>
   <i name="e_fr_energy">     -4.27056723 </i>
   <i name="e_wo_entrp">     -4.26964895 </i>
   <i name="e_0_energy">     -0.00275485 </i>
  </energy>
  <time name="totalsc">    3.69    3.95</time>
  <eigenvalues>
   <array>
    <dimension dim="1">band</dimension>
    <dimension dim="2">kpoint</dimension>
    <dimension dim="3">spin</dimension>
    <field>eigene</field>
    <field>occ</field>
    <set>
     <set comment="spin 1">
      <set comment="kpoint 1">
       <r>    5.6231    1.0000 </r>
       <r>   10.4065    1.0000 </r>
       <r>   10.5584    1.0000 </r>
       <r>   10.5584    1.0000 </r>
       <r>   12.8760    1.0000 </r>
       <r>   12.8760    1.0000 </r>
       <r>   31.9199    0.0000 </r>
       <r>   36.9833    0.0000 </r>
       <r>   38.2143    0.0000 </r>
      </set>
      <set comment="kpoint 2">
       <r>    6.4928    1.0000 </r>
       <r>   10.0389    1.0000 </r>
       <r>   10.8641    1.0000 </r>
       <r>   10.9070    1.0000 </r>
       <r>   12.5081    1.0000 </r>
       <r>   13.0390    1.0000 </r>
       <r>   33.1140    0.0000 </r>
       <r>   34.4318    0.0000 </r>
       <r>   38.4704    0.0000 </r>
      </set>
      <set comment="kpoint 3">
       <r>    7.5508    1.0000 </r>
       <r>   10.4679    1.0000 </r>
       <r>   10.9137    1.0000 </r>
       <r>   10.9655    1.0000 </r>
       <r>   12.8546    1.0000 </r>
       <r>   13.8601    1.0000 </r>
       <r>   30.6124    0.0000 </r>
       <r>   33.6070    0.0000 </r>
       <r>   39.8119    0.0000 </r>
      </set>
      <set comment="kpoint 4">
       <r>    7.3746    1.0000 </r>
       <r>   10.4318    1.0000 </r>
       <r>   10.6087    1.0000 </r>
       <r>   12.8241    1.0000 </r>
       <r>   14.0650    1.0000 </r>
       <r>   15.4455    0.0000 </r>
       <r>   26.4077    0.0000 </r>
       <r>   31.9216    0.0000 </r>
       <r>   37.9716    0.0000 </r>
      </set>
      <set comment="kpoint 5">
       <r>    7.2386    1.0000 </r>
       <r>   10.2630    1.0000 </r>
       <r>   10.5167    1.0000 </r>
       <r>   13.5447    1.0000 </r>
       <r>   14.7565    0.4996 </r>
       <r>   16.3830    0.0000 </r>
       <r>   24.4983    0.0000 </r>
       <r>   31.3707    0.0000 </r>
       <r>   37.7999    0.0000 </r>
      </set>
      <set comment="kpoint 6">
       <r>    7.4657    1.0000 </r>
       <r>   10.5078    1.0000 </r>
       <r>   10.7772    1.0000 </r>
       <r>   11.9266    1.0000 </r>
       <r>   14.2777    1.0018 </r>
       <r>   14.3953    1.0142 </r>
       <r>   27.7848    0.0000 </r>
       <r>   32.4699    0.0000 </r>
       <r>   38.9286    0.0000 </r>
      </set>
      <set comment="kpoint 7">
       <r>    7.3385    1.0000 </r>
       <r>   10.0443    1.0000 </r>
       <r>   10.9535    1.0000 </r>
       <r>   11.0520    1.0000 </r>
       <r>   12.7552    1.0000 </r>
       <r>   13.3350    1.0000 </r>
       <r>   31.9511    0.0000 </r>
       <r>   33.8641    0.0000 </r>
       <r>   39.7492    0.0000 </r>
      </set>
      <set comment="kpoint 8">
       <r>    6.0808    1.0000 </r>
       <r>   10.1287    1.0000 </r>
       <r>   10.7792    1.0000 </r>
       <r>   10.7886    1.0000 </r>
       <r>   12.5614    1.0000 </r>
       <r>   13.0155    1.0000 </r>
       <r>   32.5982    0.0000 </r>
       <r>   35.7832    0.0000 </r>
       <r>   38.3089    0.0000 </r>
      </set>
      <set comment="kpoint 9">
       <r>    6.8957    1.0000 </r>
       <r>    9.6088    1.0000 </r>
       <r>   11.1888    1.0000 </r>
       <r>   11.2382    1.0000 </r>
       <r>   12.1538    1.0000 </r>
       <r>   13.2789    1.0000 </r>
       <r>   33.8068    0.0000 </r>
       <r>   34.7890    0.0000 </r>
       <r>   38.0417    0.0000 </r>
      </set>
      <set comment="kpoint 10">
       <r>    7.9979    1.0000 </r>
       <r>    9.1940    1.0000 </r>
       <r>   10.8535    1.0000 </r>
       <r>   11.7897    1.0000 </r>
       <r>   12.7251    1.0000 </r>
       <r>   14.0626    1.0000 </r>
       <r>   32.4926    0.0000 </r>
       <r>   34.5424    0.0000 </r>
       <r>   37.3703    0.0000 </r>
      </set>
      <set comment="kpoint 11">
       <r>    8.0321    1.0000 </r>
       <r>    9.9155    1.0000 </r>
       <r>   10.5844    1.0000 </r>
       <r>   11.5634    1.0000 </r>
       <r>   14.1986    1.0003 </r>
       <r>   16.2534    0.0000 </r>
       <r>   28.0807    0.0000 </r>
       <r>   33.1326    0.0000 </r>
       <r>   35.7160    0.0000 </r>
      </set>
      <set comment="kpoint 12">
       <r>    7.8949    1.0000 </r>
       <r>    9.6529    1.0000 </r>
       <r>   11.2071    1.0000 </r>
       <r>   11.7503    1.0000 </r>
       <r>   14.6405    0.9106 </r>
       <r>   18.9827    0.0000 </r>
       <r>   24.3288    0.0000 </r>
       <r>   32.2163    0.0000 </r>
       <r>   35.2956    0.0000 </r>
      </set>
      <set comment="kpoint 13">
       <r>    8.0986    1.0000 </r>
       <r>    9.8720    1.0000 </r>
       <r>   11.0460    1.0000 </r>
       <r>   11.4502    1.0000 </r>
       <r>   13.8750    1.0000 </r>
       <r>   17.5658    0.0000 </r>
       <r>   26.6779    0.0000 </r>
       <r>   32.4078    0.0000 </r>
       <r>   35.2402    0.0000 </r>
      </set>
      <set comment="kpoint 14">
       <r>    8.3675    1.0000 </r>
       <r>    9.5499    1.0000 </r>
       <r>   10.5376    1.0000 </r>
       <r>   11.7069    1.0000 </r>
       <r>   12.4785    1.0000 </r>
       <r>   15.1034   -0.0171 </r>
       <r>   31.0822    0.0000 </r>
       <r>   33.5389    0.0000 </r>
       <r>   37.1636    0.0000 </r>
      </set>
      <set comment="kpoint 15">
       <r>    7.2240    1.0000 </r>
       <r>    9.6844    1.0000 </r>
       <r>   11.0345    1.0000 </r>
       <r>   11.2277    1.0000 </r>
       <r>   12.3065    1.0000 </r>
       <r>   13.4332    1.0000 </r>
       <r>   33.3177    0.0000 </r>
       <r>   33.9723    0.0000 </r>
       <r>   38.2540    0.0000 </r>
      </set>
      <set comment="kpoint 16">
       <r>    7.9706    1.0000 </r>
       <r>    8.3737    1.0000 </r>
       <r>   11.8932    1.0000 </r>
       <r>   12.6675    1.0000 </r>
       <r>   13.5208    1.0000 </r>
       <r>   14.0451    1.0000 </r>
       <r>   33.1330    0.0000 </r>
       <r>   34.6221    0.0000 </r>
       <r>   34.7246    0.0000 </r>
      </set>
      <set comment="kpoint 17">
       <r>    7.8650    1.0000 </r>
       <r>    8.1877    1.0000 </r>
       <r>   11.7441    1.0000 </r>
       <r>   13.2920    1.0000 </r>
       <r>   14.3243    1.0046 </r>
       <r>   16.5534    0.0000 </r>
       <r>   30.1165    0.0000 </r>
       <r>   32.2015    0.0000 </r>
       <r>   32.8655    0.0000 </r>
      </set>
      <set comment="kpoint 18">
       <r>    7.9500    1.0000 </r>
       <r>    8.8134    1.0000 </r>
       <r>   11.1779    1.0000 </r>
       <r>   12.7204    1.0000 </r>
       <r>   14.7612    0.4794 </r>
       <r>   20.7203    0.0000 </r>
       <r>   25.3585    0.0000 </r>
       <r>   30.7086    0.0000 </r>
       <r>   32.6972    0.0000 </r>
      </set>
      <set comment="kpoint 19">
       <r>    8.5810    1.0000 </r>
       <r>    9.4750    1.0000 </r>
       <r>   10.3529    1.0000 </r>
       <r>   12.3177    1.0000 </r>
       <r>   13.9508    1.0000 </r>
       <r>   20.9853    0.0000 </r>
       <r>   26.1391    0.0000 </r>
       <r>   29.0357    0.0000 </r>
       <r>   34.4937    0.0000 </r>
      </set>
      <set comment="kpoint 20">
       <r>    8.8999    1.0000 </r>
       <r>    9.6773    1.0000 </r>
       <r>   10.0440    1.0000 </r>
       <r>   11.9727    1.0000 </r>
       <r>   13.1274    1.0000 </r>
       <r>   17.8177    0.0000 </r>
       <r>   28.6886    0.0000 </r>
       <r>   31.1221    0.0000 </r>
       <r>   35.1548    0.0000 </r>
      </set>
      <set comment="kpoint 21">
       <r>    7.8137    1.0000 </r>
       <r>   10.5028    1.0000 </r>
       <r>   10.6461    1.0000 </r>
       <r>   11.1501    1.0000 </r>
       <r>   13.3743    1.0000 </r>
       <r>   14.8219    0.2385 </r>
       <r>   29.4041    0.0000 </r>
       <r>   33.3316    0.0000 </r>
       <r>   37.8703    0.0000 </r>
      </set>
      <set comment="kpoint 22">
       <r>    7.1337    1.0000 </r>
       <r>    7.4621    1.0000 </r>
       <r>   14.0121    1.0000 </r>
       <r>   14.1904    1.0002 </r>
       <r>   14.8487    0.1518 </r>
       <r>   17.0168    0.0000 </r>
       <r>   29.8800    0.0000 </r>
       <r>   30.5884    0.0000 </r>
       <r>   30.6996    0.0000 </r>
      </set>
      <set comment="kpoint 23">
       <r>    7.1669    1.0000 </r>
       <r>    7.6068    1.0000 </r>
       <r>   13.2438    1.0000 </r>
       <r>   14.1309    1.0000 </r>
       <r>   15.1094   -0.0158 </r>
       <r>   20.1490    0.0000 </r>
       <r>   27.7528    0.0000 </r>
       <r>   28.7504    0.0000 </r>
       <r>   29.9092    0.0000 </r>
      </set>
      <set comment="kpoint 24">
       <r>    7.7878    1.0000 </r>
       <r>    8.6393    1.0000 </r>
       <r>   11.4919    1.0000 </r>
       <r>   13.1240    1.0000 </r>
       <r>   14.6772    0.8078 </r>
       <r>   22.9758    0.0000 </r>
       <r>   24.5307    0.0000 </r>
       <r>   28.5458    0.0000 </r>
       <r>   32.2403    0.0000 </r>
      </set>
      <set comment="kpoint 25">
       <r>    8.3540    1.0000 </r>
       <r>    9.3321    1.0000 </r>
       <r>   11.0259    1.0000 </r>
       <r>   11.7839    1.0000 </r>
       <r>   14.3629    1.0089 </r>
       <r>   20.5586    0.0000 </r>
       <r>   24.4197    0.0000 </r>
       <r>   31.3475    0.0000 </r>
       <r>   34.4231    0.0000 </r>
      </set>
      <set comment="kpoint 26">
       <r>    7.5309    1.0000 </r>
       <r>   10.0925    1.0000 </r>
       <r>   10.7902    1.0000 </r>
       <r>   12.4421    1.0000 </r>
       <r>   14.5211    1.0351 </r>
       <r>   17.0179    0.0000 </r>
       <r>   25.2127    0.0000 </r>
       <r>   31.9400    0.0000 </r>
       <r>   36.6810    0.0000 </r>
      </set>
      <set comment="kpoint 27">
       <r>    6.8596    1.0000 </r>
       <r>    7.2635    1.0000 </r>
       <r>   14.5449    1.0301 </r>
       <r>   14.6206    0.9524 </r>
       <r>   15.1444   -0.0096 </r>
       <r>   18.5484    0.0000 </r>
       <r>   28.6367    0.0000 </r>
       <r>   29.0519    0.0000 </r>
       <r>   29.7084    0.0000 </r>
      </set>
      <set comment="kpoint 28">
       <r>    7.4362    1.0000 </r>
       <r>    7.7983    1.0000 </r>
       <r>   12.6105    1.0000 </r>
       <r>   13.9241    1.0000 </r>
       <r>   14.7922    0.3512 </r>
       <r>   18.5110    0.0000 </r>
       <r>   28.6791    0.0000 </r>
       <r>   30.5463    0.0000 </r>
       <r>   30.7610    0.0000 </r>
      </set>
      <set comment="kpoint 29">
       <r>    8.0868    1.0000 </r>
       <r>    9.2461    1.0000 </r>
       <r>   10.8000    1.0000 </r>
       <r>   12.1312    1.0000 </r>
       <r>   14.6664    0.8413 </r>
       <r>   18.3042    0.0000 </r>
       <r>   26.6400    0.0000 </r>
       <r>   32.5579    0.0000 </r>
       <r>   33.8220    0.0000 </r>
      </set>
      <set comment="kpoint 30">
       <r>    7.5903    1.0000 </r>
       <r>    7.8451    1.0000 </r>
       <r>   12.9907    1.0000 </r>
       <r>   13.4969    1.0000 </r>
       <r>   14.4598    1.0284 </r>
       <r>   15.1082   -0.0161 </r>
       <r>   31.5443    0.0000 </r>
       <r>   32.4506    0.0000 </r>
       <r>   32.8064    0.0000 </r>
      </set>
      <set comment="kpoint 31">
       <r>    8.2157    1.0000 </r>
       <r>    8.7010    1.0000 </r>
       <r>   10.9843    1.0000 </r>
       <r>   12.5039    1.0000 </r>
       <r>   13.6021    1.0000 </r>
       <r>   15.0094   -0.0352 </r>
       <r>   31.5208    0.0000 </r>
       <r>   33.7822    0.0000 </r>
       <r>   35.1390    0.0000 </r>
      </set>
      <set comment="kpoint 32">
       <r>    7.7406    1.0000 </r>
       <r>    8.9863    1.0000 </r>
       <r>   11.3670    1.0000 </r>
       <r>   11.8818    1.0000 </r>
       <r>   12.4409    1.0000 </r>
       <r>   13.6362    1.0000 </r>
       <r>   34.0351    0.0000 </r>
       <r>   35.2378    0.0000 </r>
       <r>   36.7318    0.0000 </r>
      </set>
      <set comment="kpoint 33">
       <r>    6.8063    1.0000 </r>
       <r>   10.1284    1.0000 </r>
       <r>   10.9010    1.0000 </r>
       <r>   10.9010    1.0000 </r>
       <r>   12.8212    1.0000 </r>
       <r>   12.8212    1.0000 </r>
       <r>   33.1243    0.0000 </r>
       <r>   33.4335    0.0000 </r>
       <r>   40.2013    0.0000 </r>
      </set>
      <set comment="kpoint 34">
       <r>    7.7847    1.0000 </r>
       <r>    9.6896    1.0000 </r>
       <r>   10.9255    1.0000 </r>
       <r>   11.3575    1.0000 </r>
       <r>   12.1642    1.0000 </r>
       <r>   14.1056    1.0000 </r>
       <r>   32.0812    0.0000 </r>
       <r>   33.9938    0.0000 </r>
       <r>   38.3936    0.0000 </r>
      </set>
      <set comment="kpoint 35">
       <r>    8.6728    1.0000 </r>
       <r>    9.7851    1.0000 </r>
       <r>   10.4316    1.0000 </r>
       <r>   11.5973    1.0000 </r>
       <r>   12.5446    1.0000 </r>
       <r>   16.3638    0.0000 </r>
       <r>   29.8738    0.0000 </r>
       <r>   32.3820    0.0000 </r>
       <r>   36.1881    0.0000 </r>
      </set>
      <set comment="kpoint 36">
       <r>    8.1965    1.0000 </r>
       <r>    9.6651    1.0000 </r>
       <r>   11.3592    1.0000 </r>
       <r>   11.3772    1.0000 </r>
       <r>   13.9926    1.0000 </r>
       <r>   18.9711    0.0000 </r>
       <r>   25.4413    0.0000 </r>
       <r>   31.7911    0.0000 </r>
       <r>   35.1900    0.0000 </r>
      </set>
      <set comment="kpoint 37">
       <r>    7.9398    1.0000 </r>
       <r>    9.5644    1.0000 </r>
       <r>   11.2586    1.0000 </r>
       <r>   11.5034    1.0000 </r>
       <r>   14.8306    0.2086 </r>
       <r>   18.6642    0.0000 </r>
       <r>   25.1154    0.0000 </r>
       <r>   32.3564    0.0000 </r>
       <r>   35.7316    0.0000 </r>
      </set>
      <set comment="kpoint 38">
       <r>    8.0458    1.0000 </r>
       <r>    9.3169    1.0000 </r>
       <r>   10.7610    1.0000 </r>
       <r>   11.8590    1.0000 </r>
       <r>   14.4583    1.0281 </r>
       <r>   15.1094   -0.0158 </r>
       <r>   29.7271    0.0000 </r>
       <r>   33.9143    0.0000 </r>
       <r>   35.6955    0.0000 </r>
      </set>
      <set comment="kpoint 39">
       <r>    7.8627    1.0000 </r>
       <r>    9.7966    1.0000 </r>
       <r>   10.7061    1.0000 </r>
       <r>   11.3699    1.0000 </r>
       <r>   13.5426    1.0000 </r>
       <r>   13.9211    1.0000 </r>
       <r>   30.9342    0.0000 </r>
       <r>   34.1486    0.0000 </r>
       <r>   37.9417    0.0000 </r>
      </set>
      <set comment="kpoint 40">
       <r>    8.5968    1.0000 </r>
       <r>    9.3281    1.0000 </r>
       <r>   10.1610    1.0000 </r>
       <r>   12.3162    1.0000 </r>
       <r>   13.2552    1.0000 </r>
       <r>   16.4016    0.0000 </r>
       <r>   29.9998    0.0000 </r>
       <r>   32.5107    0.0000 </r>
       <r>   35.0748    0.0000 </r>
      </set>
      <set comment="kpoint 41">
       <r>    9.0252    1.0000 </r>
       <r>    9.1540    1.0000 </r>
       <r>    9.9335    1.0000 </r>
       <r>   12.5012    1.0000 </r>
       <r>   13.8878    1.0000 </r>
       <r>   19.5970    0.0000 </r>
       <r>   27.4570    0.0000 </r>
       <r>   29.9730    0.0000 </r>
       <r>   33.5055    0.0000 </r>
      </set>
      <set comment="kpoint 42">
       <r>    8.5412    1.0000 </r>
       <r>    9.0514    1.0000 </r>
       <r>   10.5394    1.0000 </r>
       <r>   12.3464    1.0000 </r>
       <r>   14.5717    1.0152 </r>
       <r>   21.7743    0.0000 </r>
       <r>   24.3791    0.0000 </r>
       <r>   31.1419    0.0000 </r>
       <r>   31.9572    0.0000 </r>
      </set>
      <set comment="kpoint 43">
       <r>    8.3723    1.0000 </r>
       <r>    8.7918    1.0000 </r>
       <r>   10.5614    1.0000 </r>
       <r>   12.9864    1.0000 </r>
       <r>   14.0246    1.0000 </r>
       <r>   18.1231    0.0000 </r>
       <r>   28.7095    0.0000 </r>
       <r>   31.2009    0.0000 </r>
       <r>   33.0047    0.0000 </r>
      </set>
      <set comment="kpoint 44">
       <r>    7.8658    1.0000 </r>
       <r>    8.6873    1.0000 </r>
       <r>   11.3943    1.0000 </r>
       <r>   12.4833    1.0000 </r>
       <r>   14.8308    0.2079 </r>
       <r>   17.1611    0.0000 </r>
       <r>   28.2373    0.0000 </r>
       <r>   32.6873    0.0000 </r>
       <r>   33.7338    0.0000 </r>
      </set>
      <set comment="kpoint 45">
       <r>    7.9800    1.0000 </r>
       <r>    8.4127    1.0000 </r>
       <r>   11.1995    1.0000 </r>
       <r>   13.3815    1.0000 </r>
       <r>   14.6619    0.8545 </r>
       <r>   20.2071    0.0000 </r>
       <r>   27.4862    0.0000 </r>
       <r>   30.0179    0.0000 </r>
       <r>   30.7311    0.0000 </r>
      </set>
      <set comment="kpoint 46">
       <r>    8.2236    1.0000 </r>
       <r>    9.1439    1.0000 </r>
       <r>   10.3140    1.0000 </r>
       <r>   12.7784    1.0000 </r>
       <r>   15.0925   -0.0194 </r>
       <r>   23.9646    0.0000 </r>
       <r>   25.5504    0.0000 </r>
       <r>   28.2396    0.0000 </r>
       <r>   29.2301    0.0000 </r>
      </set>
      <set comment="kpoint 47">
       <r>    8.5299    1.0000 </r>
       <r>    9.1564    1.0000 </r>
       <r>   10.0983    1.0000 </r>
       <r>   12.7675    1.0000 </r>
       <r>   14.6078    0.9739 </r>
       <r>   21.7576    0.0000 </r>
       <r>   26.3008    0.0000 </r>
       <r>   29.1685    0.0000 </r>
       <r>   31.0969    0.0000 </r>
      </set>
      <set comment="kpoint 48">
       <r>    7.3527    1.0000 </r>
       <r>    8.0120    1.0000 </r>
       <r>   12.6184    1.0000 </r>
       <r>   13.6899    1.0000 </r>
       <r>   14.8565    0.1296 </r>
       <r>   21.3432    0.0000 </r>
       <r>   25.9714    0.0000 </r>
       <r>   28.6392    0.0000 </r>
       <r>   31.5932    0.0000 </r>
      </set>
      <set comment="kpoint 49">
       <r>    7.7056    1.0000 </r>
       <r>    8.2536    1.0000 </r>
       <r>   11.7031    1.0000 </r>
       <r>   13.4098    1.0000 </r>
       <r>   15.0962   -0.0186 </r>
       <r>   22.0915    0.0000 </r>
       <r>   26.7184    0.0000 </r>
       <r>   28.4910    0.0000 </r>
       <r>   29.5892    0.0000 </r>
      </set>
      <set comment="kpoint 50">
       <r>    7.5671    1.0000 </r>
       <r>    8.2273    1.0000 </r>
       <r>   12.1321    1.0000 </r>
       <r>   13.1554    1.0000 </r>
       <r>   14.9516   -0.0225 </r>
       <r>   19.4377    0.0000 </r>
       <r>   26.8336    0.0000 </r>
       <r>   30.5847    0.0000 </r>
       <r>   32.3242    0.0000 </r>
      </set>
      <set comment="kpoint 51">
       <r>    7.4148    1.0000 </r>
       <r>   10.7541    1.0000 </r>
       <r>   10.7541    1.0000 </r>
       <r>   11.5944    1.0000 </r>
       <r>   13.6105    1.0000 </r>
       <r>   13.6105    1.0000 </r>
       <r>   29.1266    0.0000 </r>
       <r>   32.9204    0.0000 </r>
       <r>   39.8640    0.0000 </r>
      </set>
      <set comment="kpoint 52">
       <r>    7.8942    1.0000 </r>
       <r>   10.2969    1.0000 </r>
       <r>   11.0194    1.0000 </r>
       <r>   11.3057    1.0000 </r>
       <r>   13.3221    1.0000 </r>
       <r>   16.0581    0.0000 </r>
       <r>   28.0262    0.0000 </r>
       <r>   32.7293    0.0000 </r>
       <r>   36.6035    0.0000 </r>
      </set>
      <set comment="kpoint 53">
       <r>    8.7928    1.0000 </r>
       <r>    9.6598    1.0000 </r>
       <r>   10.3593    1.0000 </r>
       <r>   11.9200    1.0000 </r>
       <r>   13.3899    1.0000 </r>
       <r>   19.2879    0.0000 </r>
       <r>   27.4564    0.0000 </r>
       <r>   29.8640    0.0000 </r>
       <r>   35.5822    0.0000 </r>
      </set>
      <set comment="kpoint 54">
       <r>    8.0729    1.0000 </r>
       <r>    9.1838    1.0000 </r>
       <r>   10.9953    1.0000 </r>
       <r>   12.6666    1.0000 </r>
       <r>   14.2258    1.0006 </r>
       <r>   22.4499    0.0000 </r>
       <r>   24.6593    0.0000 </r>
       <r>   28.6240    0.0000 </r>
       <r>   34.7067    0.0000 </r>
      </set>
      <set comment="kpoint 55">
       <r>    7.6740    1.0000 </r>
       <r>   10.0703    1.0000 </r>
       <r>   11.0364    1.0000 </r>
       <r>   11.5743    1.0000 </r>
       <r>   14.7187    0.6565 </r>
       <r>   16.3135    0.0000 </r>
       <r>   26.4336    0.0000 </r>
       <r>   32.4580    0.0000 </r>
       <r>   37.0253    0.0000 </r>
      </set>
      <set comment="kpoint 56">
       <r>    8.3888    1.0000 </r>
       <r>    9.3304    1.0000 </r>
       <r>   10.8058    1.0000 </r>
       <r>   11.8661    1.0000 </r>
       <r>   14.3772    1.0110 </r>
       <r>   19.5084    0.0000 </r>
       <r>   25.3787    0.0000 </r>
       <r>   32.1134    0.0000 </r>
       <r>   33.6328    0.0000 </r>
      </set>
      <set comment="kpoint 57">
       <r>    8.3813    1.0000 </r>
       <r>    9.2228    1.0000 </r>
       <r>   10.3433    1.0000 </r>
       <r>   12.6486    1.0000 </r>
       <r>   14.6082    0.9733 </r>
       <r>   23.0568    0.0000 </r>
       <r>   24.8830    0.0000 </r>
       <r>   28.6483    0.0000 </r>
       <r>   31.7599    0.0000 </r>
      </set>
      <set comment="kpoint 58">
       <r>    8.0910    1.0000 </r>
       <r>    9.2435    1.0000 </r>
       <r>   11.0724    1.0000 </r>
       <r>   12.1082    1.0000 </r>
       <r>   14.6058    0.9770 </r>
       <r>   21.1071    0.0000 </r>
       <r>   24.1686    0.0000 </r>
       <r>   30.8685    0.0000 </r>
       <r>   35.0048    0.0000 </r>
      </set>
      <set comment="kpoint 59">
       <r>    7.1551    1.0000 </r>
       <r>   10.4356    1.0000 </r>
       <r>   10.4356    1.0000 </r>
       <r>   14.5457    1.0298 </r>
       <r>   14.5876    1.0005 </r>
       <r>   14.5876    1.0005 </r>
       <r>   25.2261    0.0000 </r>
       <r>   31.3293    0.0000 </r>
       <r>   38.5605    0.0000 </r>
      </set>
      <set comment="kpoint 60">
       <r>    7.6050    1.0000 </r>
       <r>    9.9575    1.0000 </r>
       <r>   10.8403    1.0000 </r>
       <r>   12.4615    1.0000 </r>
       <r>   14.5289    1.0341 </r>
       <r>   18.0003    0.0000 </r>
       <r>   24.4310    0.0000 </r>
       <r>   31.9014    0.0000 </r>
       <r>   36.2347    0.0000 </r>
      </set>
     </set>
    </set>
   </array>
  </eigenvalues>
  <separator name="orbital magnetization" >
   <v name="MAGDIPOLOUT">      0.00000000      0.00000000      0.00000000</v>
  </separator>
  <dos>
   <i name="efermi">     14.75637525 </i>
   <total>
    <array>
     <dimension dim="1">gridpoints</dimension>
     <dimension dim="2">spin</dimension>
     <field>energy</field>
     <field>total</field>
     <field>integrated</field>
     <set>
      <set comment="spin 1">
       <r>     3.6231     0.0000     0.0000 </r>
       <r>     3.7517     0.0000     0.0000 </r>
       <r>     3.8802     0.0000     0.0000 </r>
       <r>     4.0088     0.0000     0.0000 </r>
       <r>     4.1374     0.0000     0.0000 </r>
       <r>     4.2660     0.0000     0.0000 </r>
       <r>     4.3946     0.0000     0.0000 </r>
       <r>     4.5232     0.0000     0.0000 </r>
       <r>     4.6518     0.0000     0.0000 </r>
       <r>     4.7804     0.0000     0.0000 </r>
       <r>     4.9090     0.0000     0.0000 </r>
       <r>     5.0376     0.0000     0.0000 </r>
       <r>     5.1662    -0.0002     0.0000 </r>
       <r>     5.2948    -0.0011    -0.0002 </r>
       <r>     5.4234    -0.0002    -0.0002 </r>
       <r>     5.5520     0.0147     0.0017 </r>
       <r>     5.6806     0.0298     0.0055 </r>
       <r>     5.8092     0.0126     0.0072 </r>
       <r>     5.9378     0.0128     0.0088 </r>
       <r>     6.0663     0.0715     0.0180 </r>
       <r>     6.1949     0.0808     0.0284 </r>
       <r>     6.3235     0.0282     0.0320 </r>
       <r>     6.4521     0.0538     0.0389 </r>
       <r>     6.5807     0.0802     0.0493 </r>
       <r>     6.7093     0.0550     0.0563 </r>
       <r>     6.8379     0.1310     0.0732 </r>
       <r>     6.9665     0.1799     0.0963 </r>
       <r>     7.0951     0.2649     0.1304 </r>
       <r>     7.2237     0.6127     0.2092 </r>
       <r>     7.3523     0.8307     0.3160 </r>
       <r>     7.4809     0.9476     0.4378 </r>
       <r>     7.6095     1.0865     0.5776 </r>
       <r>     7.7381     1.2764     0.7417 </r>
       <r>     7.8667     1.7691     0.9692 </r>
       <r>     7.9953     2.0666     1.2350 </r>
       <r>     8.1239     1.8576     1.4738 </r>
       <r>     8.2524     1.6316     1.6836 </r>
       <r>     8.3810     1.6498     1.8958 </r>
       <r>     8.5096     1.4991     2.0886 </r>
       <r>     8.6382     1.2932     2.2549 </r>
       <r>     8.7668     1.1195     2.3988 </r>
       <r>     8.8954     0.8111     2.5031 </r>
       <r>     9.0240     0.7556     2.6003 </r>
       <r>     9.1526     1.2745     2.7642 </r>
       <r>     9.2812     1.6551     2.9770 </r>
       <r>     9.4098     1.2056     3.1321 </r>
       <r>     9.5384     0.8219     3.2378 </r>
       <r>     9.6670     1.0944     3.3785 </r>
       <r>     9.7956     1.1052     3.5206 </r>
       <r>     9.9242     0.9735     3.6458 </r>
       <r>    10.0528     1.2065     3.8010 </r>
       <r>    10.1814     1.2065     3.9561 </r>
       <r>    10.3100     1.0654     4.0931 </r>
       <r>    10.4385     1.3898     4.2719 </r>
       <r>    10.5671     1.7009     4.4906 </r>
       <r>    10.6957     1.5725     4.6928 </r>
       <r>    10.8243     1.6828     4.9092 </r>
       <r>    10.9529     1.9784     5.1636 </r>
       <r>    11.0815     1.9884     5.4193 </r>
       <r>    11.2101     1.7883     5.6493 </r>
       <r>    11.3387     1.4805     5.8396 </r>
       <r>    11.4673     1.1804     5.9914 </r>
       <r>    11.5959     1.0321     6.1242 </r>
       <r>    11.7245     1.2358     6.2831 </r>
       <r>    11.8531     1.4773     6.4730 </r>
       <r>    11.9817     1.1241     6.6176 </r>
       <r>    12.1103     0.7079     6.7086 </r>
       <r>    12.2389     0.7580     6.8061 </r>
       <r>    12.3675     1.1421     6.9529 </r>
       <r>    12.4961     1.6007     7.1588 </r>
       <r>    12.6246     1.7379     7.3823 </r>
       <r>    12.7532     1.6003     7.5881 </r>
       <r>    12.8818     1.1692     7.7384 </r>
       <r>    13.0104     0.7655     7.8369 </r>
       <r>    13.1390     0.8465     7.9457 </r>
       <r>    13.2676     1.2190     8.1025 </r>
       <r>    13.3962     1.5413     8.3007 </r>
       <r>    13.5248     1.3330     8.4721 </r>
       <r>    13.6534     0.7971     8.5746 </r>
       <r>    13.7820     0.4977     8.6386 </r>
       <r>    13.9106     0.9427     8.7598 </r>
       <r>    14.0392     1.4770     8.9497 </r>
       <r>    14.1678     1.3213     9.1196 </r>
       <r>    14.2964     1.0008     9.2483 </r>
       <r>    14.4250     1.0381     9.3818 </r>
       <r>    14.5536     1.5479     9.5809 </r>
       <r>    14.6822     2.1144     9.8528 </r>
       <r>    14.8107     1.8290    10.0880 </r>
       <r>    14.9393     1.1398    10.2346 </r>
       <r>    15.0679     1.0801    10.3735 </r>
       <r>    15.1965     1.0583    10.5096 </r>
       <r>    15.3251     0.3801    10.5584 </r>
       <r>    15.4537     0.0432    10.5640 </r>
       <r>    15.5823     0.0446    10.5697 </r>
       <r>    15.7109     0.0077    10.5707 </r>
       <r>    15.8395    -0.0104    10.5694 </r>
       <r>    15.9681     0.0175    10.5716 </r>
       <r>    16.0967     0.0870    10.5828 </r>
       <r>    16.2253     0.2535    10.6154 </r>
       <r>    16.3539     0.5302    10.6836 </r>
       <r>    16.4825     0.5634    10.7560 </r>
       <r>    16.6111     0.3110    10.7960 </r>
       <r>    16.7397     0.0679    10.8048 </r>
       <r>    16.8683     0.0179    10.8071 </r>
       <r>    16.9968     0.2094    10.8340 </r>
       <r>    17.1254     0.3219    10.8754 </r>
       <r>    17.2540     0.1618    10.8962 </r>
       <r>    17.3826     0.0240    10.8993 </r>
       <r>    17.5112     0.0887    10.9107 </r>
       <r>    17.6398     0.1866    10.9347 </r>
       <r>    17.7684     0.1889    10.9590 </r>
       <r>    17.8970     0.2029    10.9851 </r>
       <r>    18.0256     0.2148    11.0127 </r>
       <r>    18.1542     0.2576    11.0458 </r>
       <r>    18.2828     0.2613    11.0794 </r>
       <r>    18.4114     0.2542    11.1121 </r>
       <r>    18.5400     0.3155    11.1527 </r>
       <r>    18.6686     0.2764    11.1882 </r>
       <r>    18.7972     0.1171    11.2033 </r>
       <r>    18.9258     0.1619    11.2241 </r>
       <r>    19.0544     0.2641    11.2581 </r>
       <r>    19.1829     0.1388    11.2759 </r>
       <r>    19.3115     0.0932    11.2879 </r>
       <r>    19.4401     0.2489    11.3199 </r>
       <r>    19.5687     0.4083    11.3724 </r>
       <r>    19.6973     0.2895    11.4097 </r>
       <r>    19.8259     0.0452    11.4155 </r>
       <r>    19.9545    -0.0250    11.4123 </r>
       <r>    20.0831     0.1263    11.4285 </r>
       <r>    20.2117     0.3443    11.4728 </r>
       <r>    20.3403     0.2448    11.5043 </r>
       <r>    20.4689     0.0936    11.5163 </r>
       <r>    20.5975     0.2029    11.5424 </r>
       <r>    20.7261     0.2722    11.5774 </r>
       <r>    20.8547     0.1943    11.6024 </r>
       <r>    20.9833     0.1976    11.6278 </r>
       <r>    21.1119     0.2284    11.6572 </r>
       <r>    21.2405     0.1397    11.6751 </r>
       <r>    21.3690     0.0894    11.6866 </r>
       <r>    21.4976     0.0419    11.6920 </r>
       <r>    21.6262     0.0609    11.6998 </r>
       <r>    21.7548     0.2894    11.7371 </r>
       <r>    21.8834     0.3308    11.7796 </r>
       <r>    22.0120     0.1682    11.8012 </r>
       <r>    22.1406     0.1649    11.8224 </r>
       <r>    22.2692     0.1071    11.8362 </r>
       <r>    22.3978     0.0599    11.8439 </r>
       <r>    22.5264     0.0838    11.8547 </r>
       <r>    22.6550     0.0304    11.8586 </r>
       <r>    22.7836    -0.0098    11.8573 </r>
       <r>    22.9122     0.1175    11.8724 </r>
       <r>    23.0408     0.3328    11.9152 </r>
       <r>    23.1694     0.2669    11.9496 </r>
       <r>    23.2980     0.0488    11.9558 </r>
       <r>    23.4266    -0.0155    11.9538 </r>
       <r>    23.5551    -0.0076    11.9529 </r>
       <r>    23.6837    -0.0098    11.9516 </r>
       <r>    23.8123     0.0161    11.9537 </r>
       <r>    23.9409     0.1294    11.9703 </r>
       <r>    24.0695     0.1800    11.9935 </r>
       <r>    24.1981     0.1624    12.0144 </r>
       <r>    24.3267     0.4190    12.0682 </r>
       <r>    24.4553     0.7618    12.1662 </r>
       <r>    24.5839     0.6235    12.2464 </r>
       <r>    24.7125     0.2548    12.2791 </r>
       <r>    24.8411     0.1435    12.2976 </r>
       <r>    24.9697     0.1669    12.3190 </r>
       <r>    25.0983     0.1699    12.3409 </r>
       <r>    25.2269     0.3200    12.3820 </r>
       <r>    25.3555     0.5262    12.4497 </r>
       <r>    25.4841     0.5497    12.5204 </r>
       <r>    25.6127     0.3239    12.5621 </r>
       <r>    25.7412     0.0762    12.5719 </r>
       <r>    25.8698     0.0070    12.5728 </r>
       <r>    25.9984     0.0963    12.5851 </r>
       <r>    26.1270     0.2147    12.6127 </r>
       <r>    26.2556     0.3001    12.6513 </r>
       <r>    26.3842     0.3263    12.6933 </r>
       <r>    26.5128     0.2892    12.7305 </r>
       <r>    26.6414     0.4293    12.7857 </r>
       <r>    26.7700     0.5636    12.8582 </r>
       <r>    26.8986     0.2988    12.8966 </r>
       <r>    27.0272     0.0337    12.9009 </r>
       <r>    27.1558    -0.0352    12.8964 </r>
       <r>    27.2844     0.0038    12.8969 </r>
       <r>    27.4130     0.2551    12.9297 </r>
       <r>    27.5416     0.4547    12.9881 </r>
       <r>    27.6702     0.3134    13.0285 </r>
       <r>    27.7988     0.2524    13.0609 </r>
       <r>    27.9273     0.2104    13.0880 </r>
       <r>    28.0559     0.2485    13.1199 </r>
       <r>    28.1845     0.3740    13.1680 </r>
       <r>    28.3131     0.3103    13.2079 </r>
       <r>    28.4417     0.2494    13.2400 </r>
       <r>    28.5703     0.7081    13.3310 </r>
       <r>    28.6989     1.2667    13.4939 </r>
       <r>    28.8275     0.8974    13.6093 </r>
       <r>    28.9561     0.2652    13.6434 </r>
       <r>    29.0847     0.3361    13.6866 </r>
       <r>    29.2133     0.5159    13.7530 </r>
       <r>    29.3419     0.3978    13.8041 </r>
       <r>    29.4705     0.2598    13.8375 </r>
       <r>    29.5991     0.2544    13.8703 </r>
       <r>    29.7277     0.3227    13.9117 </r>
       <r>    29.8563     0.5718    13.9853 </r>
       <r>    29.9849     0.9389    14.1060 </r>
       <r>    30.1135     0.8010    14.2090 </r>
       <r>    30.2420     0.2645    14.2430 </r>
       <r>    30.3706    -0.0190    14.2406 </r>
       <r>    30.4992     0.1640    14.2617 </r>
       <r>    30.6278     0.6505    14.3453 </r>
       <r>    30.7564     0.8892    14.4597 </r>
       <r>    30.8850     0.5951    14.5362 </r>
       <r>    31.0136     0.4592    14.5953 </r>
       <r>    31.1422     0.8152    14.7001 </r>
       <r>    31.2708     0.8039    14.8034 </r>
       <r>    31.3994     0.5040    14.8683 </r>
       <r>    31.5280     0.4207    14.9224 </r>
       <r>    31.6566     0.3688    14.9698 </r>
       <r>    31.7852     0.4005    15.0213 </r>
       <r>    31.9138     0.6845    15.1093 </r>
       <r>    32.0424     0.8185    15.2146 </r>
       <r>    32.1710     0.7799    15.3148 </r>
       <r>    32.2996     0.8720    15.4270 </r>
       <r>    32.4281     1.0577    15.5630 </r>
       <r>    32.5567     1.1448    15.7102 </r>
       <r>    32.6853     0.8608    15.8209 </r>
       <r>    32.8139     0.5766    15.8951 </r>
       <r>    32.9425     0.4530    15.9533 </r>
       <r>    33.0711     0.4879    16.0160 </r>
       <r>    33.1997     0.5428    16.0858 </r>
       <r>    33.3283     0.5013    16.1503 </r>
       <r>    33.4569     0.5179    16.2169 </r>
       <r>    33.5855     0.6147    16.2960 </r>
       <r>    33.7141     0.6912    16.3848 </r>
       <r>    33.8427     0.7952    16.4871 </r>
       <r>    33.9713     0.7670    16.5857 </r>
       <r>    34.0999     0.4765    16.6470 </r>
       <r>    34.2285     0.1574    16.6672 </r>
       <r>    34.3571     0.1754    16.6898 </r>
       <r>    34.4857     0.5292    16.7579 </r>
       <r>    34.6142     0.6367    16.8397 </r>
       <r>    34.7428     0.4332    16.8954 </r>
       <r>    34.8714     0.2101    16.9225 </r>
       <r>    35.0000     0.2273    16.9517 </r>
       <r>    35.1286     0.6762    17.0386 </r>
       <r>    35.2572     0.9370    17.1591 </r>
       <r>    35.3858     0.5311    17.2274 </r>
       <r>    35.5144     0.1172    17.2425 </r>
       <r>    35.6430     0.2510    17.2748 </r>
       <r>    35.7716     0.4844    17.3371 </r>
       <r>    35.9002     0.2848    17.3737 </r>
       <r>    36.0288     0.0319    17.3778 </r>
       <r>    36.1574     0.0862    17.3889 </r>
       <r>    36.2860     0.1710    17.4109 </r>
       <r>    36.4146     0.0737    17.4204 </r>
       <r>    36.5432     0.0783    17.4304 </r>
       <r>    36.6718     0.2853    17.4671 </r>
       <r>    36.8003     0.2982    17.5055 </r>
       <r>    36.9289     0.1285    17.5220 </r>
       <r>    37.0575     0.1553    17.5420 </r>
       <r>    37.1861     0.2504    17.5742 </r>
       <r>    37.3147     0.2505    17.6064 </r>
       <r>    37.4433     0.1966    17.6317 </r>
       <r>    37.5719     0.0611    17.6395 </r>
       <r>    37.7005     0.0237    17.6426 </r>
       <r>    37.8291     0.2352    17.6728 </r>
       <r>    37.9577     0.4332    17.7285 </r>
       <r>    38.0863     0.3381    17.7720 </r>
       <r>    38.2149     0.2641    17.8060 </r>
       <r>    38.3435     0.3616    17.8525 </r>
       <r>    38.4721     0.3163    17.8931 </r>
       <r>    38.6007     0.1454    17.9118 </r>
       <r>    38.7293     0.0246    17.9150 </r>
       <r>    38.8579     0.0370    17.9198 </r>
       <r>    38.9864     0.0900    17.9313 </r>
       <r>    39.1150     0.0511    17.9379 </r>
       <r>    39.2436     0.0011    17.9380 </r>
       <r>    39.3722    -0.0064    17.9372 </r>
       <r>    39.5008    -0.0096    17.9360 </r>
       <r>    39.6294     0.0219    17.9388 </r>
       <r>    39.7580     0.1457    17.9575 </r>
       <r>    39.8866     0.1975    17.9829 </r>
       <r>    40.0152     0.0807    17.9933 </r>
       <r>    40.1438     0.0147    17.9952 </r>
       <r>    40.2724     0.0250    17.9984 </r>
       <r>    40.4010     0.0139    18.0002 </r>
       <r>    40.5296    -0.0003    18.0002 </r>
       <r>    40.6582    -0.0011    18.0000 </r>
       <r>    40.7868    -0.0002    18.0000 </r>
       <r>    40.9154     0.0000    18.0000 </r>
       <r>    41.0440     0.0000    18.0000 </r>
       <r>    41.1725     0.0000    18.0000 </r>
       <r>    41.3011     0.0000    18.0000 </r>
       <r>    41.4297     0.0000    18.0000 </r>
       <r>    41.5583     0.0000    18.0000 </r>
       <r>    41.6869     0.0000    18.0000 </r>
       <r>    41.8155     0.0000    18.0000 </r>
       <r>    41.9441     0.0000    18.0000 </r>
       <r>    42.0727     0.0000    18.0000 </r>
       <r>    42.2013     0.0000    18.0000 </r>
      </set>
     </set>
    </array>
   </total>
  </dos>
 </calculation>
 <structure name="finalpos" >
  <crystal>
   <varray name="basis" >
    <v>       2.53059375       0.00000000       0.00000000 </v>
    <v>       1.26529687       2.19155847       0.00000000 </v>
    <v>       1.26529687       0.73051949       2.06622114 </v>
   </varray>
   <i name="volume">     11.45914711 </i>
   <varray name="rec_basis" >
    <v>       0.39516418      -0.22814814      -0.16132510 </v>
    <v>       0.00000000       0.45629629      -0.16132510 </v>
    <v>       0.00000000       0.00000000       0.48397530 </v>
   </varray>
  </crystal>
  <varray name="positions" >
   <v>       0.00000000       0.00000000       0.00000000 </v>
  </varray>
 </structure>
</modeling>
