 vasp.5.3.5 31Mar14 (build Jan 09 2015 16:57:47) complex                        
  
 POSCAR found :  1 types and       1 ions
 LDA part: xc-table for Pade appr. of Perdew
 POSCAR found :  1 types and       1 ions
 POSCAR, INCAR and KPOINTS ok, starting setup
 WARNING: small aliasing (wrap around) errors must be expected
 FFT: planning ...
 WAVECAR not read
 entering main loop
       N       E                     dE             d eps       ncg     rms          rms(c)
DAV:   1     0.276994327413E+02    0.27699E+02   -0.42357E+03  1088   0.753E+02
DAV:   2    -0.434976553854E+01   -0.32049E+02   -0.31026E+02  1215   0.167E+02
DAV:   3    -0.457242244369E+01   -0.22266E+00   -0.22225E+00  1282   0.160E+01
DAV:   4    -0.457328702316E+01   -0.86458E-03   -0.86452E-03  1300   0.925E-01
DAV:   5    -0.457329333066E+01   -0.63075E-05   -0.63083E-05  1310   0.654E-02    0.164E+01
DAV:   6    -0.432113893340E+01    0.25215E+00   -0.61303E-01  1138   0.808E+00    0.866E+00
DAV:   7    -0.427633983214E+01    0.44799E-01   -0.66349E-02  1534   0.244E+00    0.277E+00
DAV:   8    -0.427056334567E+01    0.57765E-02   -0.34512E-03  1210   0.674E-01    0.130E-01
DAV:   9    -0.427056723058E+01   -0.38849E-05   -0.26970E-05   747   0.554E-02
   1 F= -.42705672E+01 E0= -.42696489E+01  d E =-.427057E+01
 curvature:   0.00 expect dE= 0.000E+00 dE for cont linesearch  0.000E+00
 trial: gam= 0.00000 g(F)=  0.511E-61 g(S)=  0.000E+00 ort = 0.000E+00 (trialstep = 0.100E+01)
 search vector abs. value=  0.100E-09
 reached required accuracy - stopping structural energy minimisation
 writing wavefunctions
