unknown system                          
           1
     2.530594    0.000000    0.000000
     1.265297    2.191558    0.000000
     1.265297    0.730519    2.066221
   Pd
   1
Direct configuration=     1
   0.00000000  0.00000000  0.00000000
