unknown system                          
   1.00000000000000     
     3.123432    0.000000    0.000000
     1.561716    2.704972    0.000000
     1.561716    0.901657    2.550272
   Ag
     1
Direct
  0.000000  0.000000  0.000000
 
   28   28   28
  168.56      161.98      144.27      120.21      94.497      70.087      48.520      30.967      18.411      10.909    
  7.0869      4.9328      3.7283      3.1591      2.9958      3.1591      3.7283      4.9328      7.0869      10.909    
  18.411      30.967      48.520      70.087      94.497      120.21      144.27      161.98      161.98      149.86    
  129.13      104.60      80.000      57.417      38.163      23.406      13.756      8.5239      5.7901      4.1832    
  3.3531      3.0151      3.0136      3.3513      4.1842      5.7920      8.5234      13.754      23.406      38.164    
  57.417      79.998      104.60      129.13      149.86      161.98      144.27      129.13      108.25      85.481    
  63.448      43.797      27.869      16.648      10.065      6.6758      4.6905      3.5850      3.0645      2.9161    
  3.0645      3.5850      4.6905      6.6758      10.065      16.648      27.869      43.797      63.448      85.481    
  108.25      129.13      144.27      149.86      120.21      104.60      85.482      65.585      46.887      30.952    
  19.024      11.499      7.4771      5.1947      3.8416      3.1392      2.8523      2.8542      3.1413      3.8401    
  5.1925      7.4780      11.501      19.023      30.951      46.888      65.587      85.481      104.60      120.21    
  129.13      129.13      94.495      79.999      63.449      46.887      32.050      20.361      12.531      8.1088    
  5.6214      4.0839      3.2308      2.8205      2.7005      2.8205      3.2309      4.0839      5.6214      8.1088    
  12.531      20.361      32.050      46.887      63.449      79.999      94.495      104.60      108.25      104.60    
  70.087      57.416      43.797      30.953      20.360      12.904      8.4647      5.9122      4.2746      3.3140    
  2.8092      2.5961      2.5942      2.8072      3.3157      4.2768      5.9109      8.4627      12.905      20.362    
  30.951      43.796      57.418      70.089      79.998      85.481      85.482      79.999      48.521      38.163    
  27.869      19.024      12.530      8.4628      6.0138      4.3834      3.3769      2.8060      2.5233      2.4394    
  2.5233      2.8060      3.3769      4.3834      6.0138      8.4628      12.530      19.024      27.869      38.163    
  48.521      57.418      63.448      65.586      63.448      57.418      30.967      23.406      16.649      11.500    
  8.1094      5.9108      4.3817      3.4007      2.8103      2.4807      2.3350      2.3365      2.4822      2.8089    
  3.3990      4.3827      5.9124      8.1089      11.500      16.650      23.406      30.965      38.163      43.797    
  46.888      46.887      43.796      38.165      18.411      13.755      10.065      7.4778      5.6231      4.2754    
  3.3763      2.8096      2.4684      2.2843      2.2256      2.2842      2.4684      2.8096      3.3763      4.2754    
  5.6231      7.4777      10.065      13.755      18.411      23.406      27.869      30.952      32.052      30.952    
  27.869      23.406      10.909      8.5238      6.6749      5.1938      4.0841      3.3151      2.8069      2.4811    
  2.2845      2.1902      2.1896      2.2840      2.4818      2.8077      3.3147      4.0831      5.1934      6.6747    
  8.5236      10.909      13.756      16.649      19.023      20.361      20.361      19.024      16.649      13.754    
  7.0873      5.7905      4.6905      3.8408      3.2297      2.8085      2.5233      2.3356      2.2262      2.1899    
  2.2262      2.3356      2.5233      2.8085      3.2297      3.8409      4.6905      5.7906      7.0873      8.5237    
  10.065      11.500      12.530      12.904      12.530      11.500      10.065      8.5237      4.9329      4.1835    
  3.5857      3.1399      2.8205      2.5952      2.4383      2.3359      2.2843      2.2841      2.3356      2.4381    
  2.5950      2.8206      3.1406      3.5868      4.1839      4.9321      5.7904      6.6746      7.4778      8.1095    
  8.4638      8.4635      8.1088      7.4773      6.6751      5.7917      3.7280      3.3528      3.0644      2.8530    
  2.7017      2.5950      2.5232      2.4815      2.4679      2.4816      2.5232      2.5950      2.7016      2.8530    
  3.0644      3.3528      3.7280      4.1839      4.6904      5.1932      5.6226      5.9118      6.0137      5.9118    
  5.6226      5.1931      4.6904      4.1839      3.1591      3.0148      2.9154      2.8535      2.8206      2.8080    
  2.8070      2.8094      2.8097      2.8076      2.8084      2.8206      2.8530      2.9144      3.0138      3.1592    
  3.3528      3.5868      3.8409      4.0833      4.2755      4.3822      4.3823      4.2759      4.0839      3.8408    
  3.5857      3.3516      2.9962      3.0139      3.0645      3.1406      3.2297      3.3149      3.3769      3.3997    
  3.3769      3.3149      3.2297      3.1406      3.0645      3.0139      2.9961      3.0139      3.0645      3.1406    
  3.2297      3.3149      3.3769      3.3997      3.3769      3.3149      3.2297      3.1406      3.0645      3.0139    
  3.1591      3.3516      3.5857      3.8408      4.0839      4.2759      4.3823      4.3822      4.2755      4.0833    
  3.8409      3.5868      3.3528      3.1592      3.0138      2.9144      2.8530      2.8206      2.8084      2.8076    
  2.8097      2.8094      2.8070      2.8080      2.8206      2.8535      2.9154      3.0148      3.7280      4.1839    
  4.6904      5.1931      5.6226      5.9118      6.0137      5.9118      5.6226      5.1932      4.6904      4.1839    
  3.7280      3.3528      3.0644      2.8530      2.7016      2.5950      2.5232      2.4816      2.4679      2.4815    
  2.5232      2.5950      2.7017      2.8530      3.0644      3.3528      4.9329      5.7917      6.6751      7.4773    
  8.1088      8.4635      8.4638      8.1095      7.4778      6.6746      5.7904      4.9321      4.1839      3.5868    
  3.1406      2.8206      2.5950      2.4381      2.3356      2.2841      2.2843      2.3359      2.4383      2.5952    
  2.8205      3.1399      3.5857      4.1835      7.0873      8.5237      10.065      11.500      12.530      12.904    
  12.530      11.500      10.065      8.5237      7.0873      5.7906      4.6905      3.8409      3.2297      2.8085    
  2.5233      2.3356      2.2262      2.1899      2.2262      2.3356      2.5233      2.8085      3.2297      3.8408    
  4.6905      5.7905      10.909      13.754      16.649      19.024      20.361      20.361      19.023      16.649    
  13.756      10.909      8.5236      6.6747      5.1934      4.0831      3.3147      2.8077      2.4818      2.2840    
  2.1896      2.1902      2.2845      2.4811      2.8069      3.3151      4.0841      5.1938      6.6749      8.5238    
  18.411      23.406      27.869      30.952      32.052      30.952      27.869      23.406      18.411      13.755    
  10.065      7.4777      5.6231      4.2754      3.3763      2.8096      2.4684      2.2842      2.2256      2.2843    
  2.4684      2.8096      3.3763      4.2754      5.6231      7.4778      10.065      13.755      30.967      38.165    
  43.796      46.887      46.888      43.797      38.163      30.965      23.406      16.650      11.500      8.1089    
  5.9124      4.3827      3.3990      2.8089      2.4822      2.3365      2.3350      2.4807      2.8103      3.4007    
  4.3817      5.9108      8.1094      11.500      16.649      23.406      48.521      57.418      63.448      65.586    
  63.448      57.418      48.521      38.163      27.869      19.024      12.530      8.4628      6.0138      4.3834    
  3.3769      2.8060      2.5233      2.4394      2.5233      2.8060      3.3769      4.3834      6.0138      8.4628    
  12.530      19.024      27.869      38.163      70.087      79.999      85.482      85.481      79.998      70.089    
  57.418      43.796      30.951      20.362      12.905      8.4627      5.9109      4.2768      3.3157      2.8072    
  2.5942      2.5961      2.8092      3.3140      4.2746      5.9122      8.4647      12.904      20.360      30.953    
  43.797      57.416      94.495      104.60      108.25      104.60      94.495      79.999      63.449      46.887    
  32.050      20.361      12.531      8.1088      5.6214      4.0839      3.2309      2.8205      2.7005      2.8205    
  3.2308      4.0839      5.6214      8.1088      12.531      20.361      32.050      46.887      63.449      79.999    
  120.21      129.13      129.13      120.21      104.60      85.481      65.587      46.888      30.951      19.023    
  11.501      7.4780      5.1925      3.8401      3.1413      2.8542      2.8523      3.1392      3.8416      5.1947    
  7.4771      11.499      19.024      30.952      46.887      65.585      85.482      104.60      144.27      149.86    
  144.27      129.13      108.25      85.481      63.448      43.797      27.869      16.648      10.065      6.6758    
  4.6905      3.5850      3.0645      2.9161      3.0645      3.5850      4.6905      6.6758      10.065      16.648    
  27.869      43.797      63.448      85.481      108.25      129.13      161.98      161.98      149.86      129.13    
  104.60      79.998      57.417      38.164      23.406      13.754      8.5234      5.7920      4.1842      3.3513    
  3.0136      3.0151      3.3531      4.1832      5.7901      8.5239      13.756      23.406      38.163      57.417    
  80.000      104.60      129.13      149.86      161.98      149.86      129.13      104.60      80.000      57.417    
  38.163      23.406      13.756      8.5239      5.7901      4.1832      3.3531      3.0151      3.0136      3.3513    
  4.1842      5.7920      8.5234      13.754      23.406      38.164      57.417      79.998      104.60      129.13    
  149.86      161.98      149.86      133.91      112.02      88.323      65.544      45.290      28.849      17.206    
  10.334      6.8120      4.7718      3.6341      3.0988      2.9464      3.0990      3.6342      4.7716      6.8120    
  10.335      17.207      28.849      45.289      65.542      88.321      112.02      133.91      149.86      155.76    
  129.13      112.02      91.299      69.995      50.116      33.159      20.357      12.183      7.8029      5.3876    
  3.9553      3.2127      2.9103      2.9120      3.2148      3.9540      5.3854      7.8038      12.185      20.357    
  33.158      50.116      69.996      91.299      112.02      129.13      139.00      139.00      104.60      88.323    
  69.997      51.823      35.534      22.562      13.723      8.6818      5.9494      4.2764      3.3487      2.9052    
  2.7762      2.9050      3.3487      4.2766      5.9493      8.6814      13.723      22.563      35.535      51.824    
  69.997      88.323      104.60      116.09      120.28      116.09      79.999      65.543      50.117      35.536    
  23.353      14.596      9.3042      6.3833      4.5537      3.4796      2.9196      2.6857      2.6837      2.9174    
  3.4813      4.5560      6.3818      9.3020      14.597      23.355      35.535      50.116      65.544      80.000    
  91.437      97.826      97.827      91.437      57.417      45.288      33.159      22.563      14.597      9.5277    
  6.6166      4.7459      3.5890      2.9395      2.6227      2.5296      2.6226      2.9395      3.5891      4.7460    
  6.6168      9.5278      14.596      22.563      33.158      45.288      57.417      67.858      74.975      77.509    
  74.974      67.857      38.164      28.848      20.356      13.722      9.3042      6.6160      4.8115      3.6515    
  2.9616      2.5841      2.4204      2.4219      2.5858      2.9601      3.6498      4.8129      6.6176      9.3030    
  13.721      20.357      28.849      38.163      46.932      53.768      57.517      57.516      53.767      46.934    
  23.407      17.207      12.183      8.6817      6.3833      4.7448      3.6500      2.9690      2.5682      2.3572    
  2.2911      2.3572      2.5682      2.9688      3.6498      4.7446      6.3835      8.6825      12.183      17.207    
  23.407      29.916      35.645      39.569      40.965      39.570      35.646      29.917      13.756      10.335    
  7.8033      5.9500      4.5548      3.5894      2.9606      2.5671      2.3361      2.2278      2.2272      2.3354    
  2.5677      2.9612      3.5888      4.5542      5.9506      7.8039      10.334      13.755      17.805      21.850    
  25.118      26.943      26.944      25.119      21.849      17.805      8.5234      6.8116      5.3871      4.2762    
  3.4803      2.9408      2.5848      2.3569      2.2274      2.1851      2.2275      2.3570      2.5850      2.9413    
  3.4806      4.2757      5.3860      6.8109      8.5238      10.615      12.938      15.103      16.645      17.204    
  16.645      15.103      12.938      10.614      5.7904      4.7717      3.9547      3.3477      2.9188      2.6227    
  2.4211      2.2918      2.2275      2.2275      2.2918      2.4210      2.6227      2.9188      3.3478      3.9548    
  4.7718      5.7905      6.9435      8.1439      9.3228      10.299      10.857      10.857      10.299      9.3228    
  8.1439      6.9434      4.1837      3.6348      3.2132      2.9052      2.6850      2.5285      2.4211      2.3572    
  2.3359      2.3572      2.4210      2.5281      2.6846      2.9053      3.2141      3.6359      4.1841      4.8459    
  5.5736      6.2860      6.8856      7.2870      7.4292      7.2865      6.8854      6.2864      5.5747      4.8467    
  3.3528      3.0990      2.9109      2.7771      2.6845      2.6228      2.5850      2.5673      2.5674      2.5851    
  2.6226      2.6844      2.7771      2.9109      3.0989      3.3527      3.6759      4.0557      4.4595      4.8374    
  5.1319      5.2933      5.2932      5.1318      4.8375      4.4596      4.0555      3.6757      3.0146      2.9458    
  2.9116      2.9051      2.9181      2.9407      2.9609      2.9688      2.9608      2.9411      2.9189      2.9052    
  2.9108      2.9446      3.0139      3.1230      3.2705      3.4463      3.6305      3.7951      3.9101      3.9518    
  3.9106      3.7955      3.6302      3.4455      3.2696      3.1228      3.0139      3.0989      3.2142      3.3478    
  3.4806      3.5891      3.6505      3.6505      3.5891      3.4806      3.3477      3.2142      3.0989      3.0139    
  2.9643      2.9499      2.9655      3.0029      3.0509      3.0955      3.1224      3.1224      3.0955      3.0510    
  3.0030      2.9655      2.9499      2.9644      3.3519      3.6348      3.9544      4.2765      4.5553      4.7449    
  4.8121      4.7446      4.5547      4.2760      3.9547      3.6359      3.3529      3.1231      2.9498      2.8268    
  2.7436      2.6902      2.6592      2.6442      2.6398      2.6438      2.6588      2.6902      2.7441      2.8277    
  2.9505      3.1229      4.1839      4.7718      5.3860      5.9502      6.3827      6.6169      6.6169      6.3826    
  5.9504      5.3862      4.7717      4.1839      3.6759      3.2706      2.9654      2.7434      2.5843      2.4725    
  2.3997      2.3634      2.3635      2.3998      2.4724      2.5842      2.7435      2.9656      3.2705      3.6757    
  5.7915      6.8114      7.8033      8.6815      9.3028      9.5290      9.3037      8.6824      7.8035      6.8108    
  5.7905      4.8459      4.0556      3.4463      3.0030      2.6902      2.4724      2.3251      2.2374      2.2079    
  2.2373      2.3253      2.4727      2.6901      3.0021      3.4454      4.0554      4.8466      8.5238      10.334    
  12.184      13.722      14.597      14.596      13.721      12.184      10.335      8.5237      6.9434      5.5738    
  4.4597      3.6304      3.0509      2.6594      2.3998      2.2373      2.1578      2.1579      2.2375      2.3996    
  2.6592      3.0510      3.6305      4.4595      5.5736      6.9435      13.755      17.207      20.357      22.563    
  23.355      22.562      20.356      17.207      13.756      10.615      8.1435      6.2860      4.8379      3.7951    
  3.0951      2.6442      2.3639      2.2079      2.1574      2.2081      2.3638      2.6439      3.0950      3.7956    
  4.8387      6.2865      8.1432      10.614      23.406      28.849      33.158      35.535      35.536      33.159    
  28.848      23.405      17.805      12.939      9.3223      6.8850      5.1323      3.9106      3.1219      2.6392    
  2.3639      2.2379      2.2369      2.3629      2.6401      3.1229      3.9097      5.1313      6.8859      9.3233    
  12.938      17.805      38.164      45.289      50.115      51.823      50.116      45.290      38.164      29.915    
  21.850      15.104      10.299      7.2860      5.2931      3.9527      3.1224      2.6429      2.3996      2.3262    
  2.3998      2.6429      3.1224      3.9528      5.2932      7.2855      10.298      15.104      21.851      29.916    
  57.416      65.543      69.996      69.995      65.542      57.418      46.934      35.645      25.118      16.646    
  10.858      7.4284      5.2924      3.9114      3.0963      2.6581      2.4716      2.4735      2.6601      3.0945    
  3.9094      5.2940      7.4305      10.856      16.644      25.119      35.647      46.932      79.997      88.322    
  91.300      88.323      79.998      67.857      53.768      39.569      26.943      17.204      10.858      7.2865    
  5.1307      3.7956      3.0521      2.6902      2.5831      2.6901      3.0521      3.7956      5.1306      7.2865    
  10.858      17.205      26.943      39.569      53.768      67.856      104.60      112.02      112.02      104.60    
  91.436      74.974      57.517      40.965      26.943      16.645      10.300      6.8860      4.8367      3.6295    
  3.0038      2.7448      2.7427      3.0014      3.6312      4.8391      6.8846      10.297      16.646      26.945    
  40.964      57.516      74.975      91.438      129.13      133.91      129.13      116.09      97.827      77.509    
  57.517      39.571      25.118      15.102      9.3228      6.2874      4.4595      3.4445      2.9656      2.8287    
  2.9655      3.4445      4.4596      6.2874      9.3228      15.102      25.118      39.570      57.517      77.509    
  97.827      116.10      149.86      149.86      139.00      120.28      97.827      74.974      53.767      35.647    
  21.850      12.937      8.1434      5.5753      4.0562      3.2691      2.9494      2.9511      3.2712      4.0549    
  5.5732      8.1442      12.939      21.850      35.645      53.767      74.975      97.827      120.28      139.00    
  161.98      155.76      139.00      116.09      91.437      67.856      46.933      29.917      17.806      10.614    
  6.9429      4.8467      3.6765      3.1229      2.9638      3.1229      3.6765      4.8467      6.9429      10.614    
  17.806      29.917      46.933      67.856      91.437      116.09      139.00      155.76      144.27      129.13    
  108.25      85.481      63.448      43.797      27.869      16.648      10.065      6.6758      4.6905      3.5850    
  3.0645      2.9161      3.0645      3.5850      4.6905      6.6758      10.065      16.648      27.869      43.797    
  63.448      85.481      108.25      129.13      144.27      149.86      129.13      112.02      91.299      69.995    
  50.116      33.159      20.357      12.183      7.8029      5.3876      3.9553      3.2127      2.9103      2.9120    
  3.2148      3.9540      5.3854      7.8038      12.185      20.357      33.158      50.116      69.996      91.299    
  112.02      129.13      139.00      139.00      108.25      91.299      72.316      53.566      36.770      23.351    
  14.155      8.8884      6.0646      4.3443      3.3899      2.9345      2.8023      2.9345      3.3900      4.3443    
  6.0646      8.8884      14.155      23.351      36.770      53.566      72.316      91.298      108.25      120.28    
  124.66      120.28      85.481      69.995      53.567      38.052      25.019      15.555      9.7807      6.6378    
  4.7053      3.5691      2.9785      2.7329      2.7311      2.9764      3.5707      4.7075      6.6364      9.7784    
  15.556      25.021      38.052      53.566      69.996      85.481      97.825      104.76      104.77      97.828    
  63.448      50.116      36.771      25.021      16.063      10.286      7.0178      4.9889      3.7305      3.0274    
  2.6873      2.5881      2.6873      3.0274      3.7305      4.9889      7.0178      10.286      16.063      25.021    
  36.771      50.116      63.448      74.975      82.881      85.707      82.881      74.975      43.797      33.158    
  23.351      15.557      10.287      7.1503      5.1406      3.8432      3.0759      2.6612      2.4837      2.4854    
  2.6630      3.0743      3.8414      5.1422      7.1524      10.286      15.555      23.351      33.159      43.796    
  53.767      61.543      65.817      65.815      61.540      53.767      27.870      20.357      14.153      9.7800    
  7.0186      5.1413      3.8812      3.1028      2.6516      2.4182      2.3459      2.4181      2.6516      3.1028    
  3.8812      5.1413      7.0186      9.7799      14.153      20.357      27.870      35.646      42.432      47.063    
  48.708      47.063      42.431      35.646      16.650      12.184      8.8880      6.6366      4.9883      3.8429    
  3.1024      2.6470      2.3858      2.2654      2.2644      2.3847      2.6480      3.1033      3.8416      4.9870    
  6.6376      8.8897      12.184      16.649      21.850      26.963      31.049      33.318      33.319      31.051    
  26.963      21.850      10.065      7.8039      6.0656      4.7057      3.7305      3.0755      2.6507      2.3849    
  2.2374      2.1898      2.2374      2.3849      2.6507      3.0755      3.7306      4.7057      6.0656      7.8039    
  10.065      12.938      16.124      19.059      21.128      21.874      21.128      19.059      16.124      12.938    
  6.6750      5.3871      4.3444      3.5697      3.0284      2.6620      2.4183      2.2648      2.1893      2.1895    
  2.2649      2.4181      2.6622      3.0291      3.5701      4.3437      5.3860      6.6745      8.1440      9.8035    
  11.500      12.917      13.727      13.727      12.917      11.499      9.8029      8.1436      4.6905      3.9547    
  3.3890      2.9777      2.6873      2.4844      2.3467      2.2648      2.2374      2.2648      2.3467      2.4844    
  2.6873      2.9777      3.3890      3.9548      4.6906      5.5738      6.5332      7.4636      8.2756      8.8470    
  9.0543      8.8470      8.2756      7.4636      6.5332      5.5737      3.5858      3.2134      2.9344      2.7321    
  2.5871      2.4848      2.4181      2.3851      2.3854      2.4183      2.4843      2.5863      2.7318      2.9348    
  3.2141      3.5866      4.0558      4.6010      5.1734      5.7020      6.1087      6.3294      6.3291      6.1084    
  5.7026      5.1745      4.6014      4.0553      3.0645      2.9110      2.8032      2.7317      2.6873      2.6624    
  2.6507      2.6474      2.6507      2.6625      2.6873      2.7316      2.8032      2.9109      3.0645      3.2705    
  3.5271      3.8187      4.1142      4.3719      4.5484      4.6113      4.5484      4.3718      4.1142      3.8186    
  3.5271      3.2705      2.9153      2.9115      2.9346      2.9771      3.0284      3.0751      3.1029      3.1028    
  3.0751      3.0290      2.9778      2.9347      2.9108      2.9142      2.9499      3.0188      3.1170      3.2341    
  3.3528      3.4507      3.5065      3.5068      3.4511      3.3526      3.2333      3.1162      3.0186      2.9506    
  3.0646      3.2142      3.3890      3.5700      3.7306      3.8421      3.8821      3.8421      3.7306      3.5700    
  3.3890      3.2142      3.0645      2.9499      2.8724      2.8290      2.8134      2.8178      2.8329      2.8482    
  2.8546      2.8482      2.8329      2.8178      2.8134      2.8290      2.8724      2.9499      3.5858      3.9547    
  4.3442      4.7067      4.9879      5.1415      5.1412      4.9873      4.7062      4.3439      3.9547      3.5866    
  3.2707      3.0189      2.8289      2.6910      2.5936      2.5276      2.4868      2.4677      2.4678      2.4868    
  2.5273      2.5938      2.6920      2.8297      3.0185      3.2695      4.6905      5.3862      6.0655      6.6370    
  7.0178      7.1518      7.0178      6.6371      6.0656      5.3862      4.6905      4.0556      3.5271      3.1171    
  2.8133      2.5934      2.4363      2.3282      2.2636      2.2419      2.2636      2.3282      2.4363      2.5934    
  2.8133      3.1171      3.5271      4.0555      6.6750      7.8032      8.8884      9.7791      10.287      10.287    
  9.7799      8.8892      7.8035      6.6744      5.5738      4.6009      3.8185      3.2341      2.8178      2.5275    
  2.3281      2.1997      2.1357      2.1356      2.1997      2.3282      2.5274      2.8172      3.2333      3.8183    
  4.6015      5.5748      10.065      12.184      14.154      15.555      16.063      15.555      14.154      12.184    
  10.065      8.1439      6.5331      5.1735      4.1144      3.3528      2.8327      2.4869      2.2638      2.1356    
  2.0934      2.1356      2.2638      2.4869      2.8327      3.3528      4.1144      5.1735      6.5331      8.1439    
  16.650      20.358      23.351      25.020      25.020      23.350      20.356      16.649      12.939      9.8040    
  7.4632      5.7017      4.3723      3.4511      2.8479      2.4675      2.2423      2.1360      2.1353      2.2416    
  2.4681      2.8486      3.4507      4.3722      5.7028      7.4637      9.8024      12.937      27.869      33.159    
  36.771      38.052      36.771      33.159      27.869      21.849      16.124      11.501      8.2756      6.1079    
  4.5484      3.5073      2.8546      2.4670      2.2636      2.2005      2.2636      2.4670      2.8546      3.5073    
  4.5484      6.1079      8.2756      11.501      16.124      21.849      43.796      50.116      53.567      53.566    
  50.116      43.798      35.646      26.962      19.057      12.918      8.8477      6.3286      4.6105      3.5074    
  2.8489      2.4860      2.3274      2.3289      2.4876      2.8475      3.5058      4.6117      6.3298      8.8459    
  12.916      19.059      26.965      35.646      63.447      69.995      72.316      69.995      63.447      53.768    
  42.434      31.050      21.127      13.727      9.0554      6.3292      4.5473      3.4510      2.8340      2.5274    
  2.4351      2.5274      2.8340      3.4510      4.5472      6.3291      9.0554      13.727      21.127      31.050    
  42.433      53.768      85.480      91.298      91.299      85.481      74.973      61.541      47.063      33.319    
  21.874      13.726      8.8478      6.1093      4.3712      3.3518      2.8186      2.5947      2.5927      2.8164    
  3.3536      4.3733      6.1078      8.8458      13.728      21.876      33.318      47.061      61.542      74.975    
  108.25      112.02      108.25      97.827      82.881      65.815      48.707      33.320      21.128      12.916    
  8.2756      5.7036      4.1142      3.2323      2.8134      2.6929      2.8133      3.2323      4.1142      5.7036    
  8.2756      12.916      21.128      33.320      48.707      65.815      82.881      97.827      129.13      129.13    
  120.28      104.77      85.709      65.815      47.062      31.051      19.059      11.499      7.4629      5.1751    
  3.8192      3.1155      2.8284      2.8303      3.1176      3.8176      5.1728      7.4641      11.501      19.058    
  31.049      47.062      65.817      85.709      104.76      120.28      144.27      139.00      124.66      104.76    
  82.882      61.541      42.432      26.964      16.125      9.8027      6.5325      4.6015      3.5279      3.0186    
  2.8717      3.0186      3.5279      4.6015      6.5325      9.8027      16.125      26.964      42.432      61.541    
  82.882      104.76      124.66      139.00      149.86      139.00      120.28      97.827      74.975      53.767    
  35.645      21.850      12.939      8.1442      5.5732      4.0549      3.2712      2.9511      2.9494      3.2691    
  4.0562      5.5753      8.1434      12.937      21.850      35.647      53.767      74.974      97.827      120.28    
  139.00      149.86      120.21      104.60      85.482      65.585      46.887      30.952      19.024      11.499    
  7.4771      5.1947      3.8416      3.1392      2.8523      2.8542      3.1413      3.8401      5.1925      7.4780    
  11.501      19.023      30.951      46.888      65.587      85.481      104.60      120.21      129.13      129.13    
  104.60      88.323      69.997      51.823      35.534      22.562      13.723      8.6818      5.9494      4.2764    
  3.3487      2.9052      2.7762      2.9050      3.3487      4.2766      5.9493      8.6814      13.723      22.563    
  35.535      51.824      69.997      88.323      104.60      116.09      120.28      116.09      85.481      69.995    
  53.567      38.052      25.019      15.555      9.7807      6.6378      4.7053      3.5691      2.9785      2.7329    
  2.7311      2.9764      3.5707      4.7075      6.6364      9.7784      15.556      25.021      38.052      53.566    
  69.996      85.481      97.825      104.76      104.77      97.828      65.586      51.822      38.051      25.900    
  16.594      10.562      7.1590      5.0743      3.7803      3.0583      2.7097      2.6082      2.7098      3.0583    