unknown system                          
   1.00000000000000     
     3.123432    0.000000    0.000000
     1.561716    2.704972    0.000000
     1.561716    0.901657    2.550272
   Ag
     1
Direct
  0.000000  0.000000  0.000000
 
   28   28   28
 0.16856294396E+03 0.16197777879E+03 0.14427095366E+03 0.12020957061E+03 0.94496662695E+02
 0.70087401408E+02 0.48520214481E+02 0.30966640743E+02 0.18410908492E+02 0.10908644914E+02
 0.70868925734E+01 0.49328205356E+01 0.37283208649E+01 0.31590800929E+01 0.29957876132E+01
 0.31590800929E+01 0.37283208649E+01 0.49328205356E+01 0.70868925734E+01 0.10908644914E+02
 0.18410908492E+02 0.30966640743E+02 0.48520214481E+02 0.70087401408E+02 0.94496662695E+02
 0.12020957061E+03 0.14427095366E+03 0.16197777879E+03 0.16197812409E+03 0.14985653167E+03
 0.12913276463E+03 0.10460221676E+03 0.79999655388E+02 0.57417105887E+02 0.38163312503E+02
 0.23406151302E+02 0.13755839547E+02 0.85238982378E+01 0.57900806442E+01 0.41831579746E+01
 0.33531115860E+01 0.30150558042E+01 0.30135681371E+01 0.33513112335E+01 0.41841989882E+01
 0.57920133319E+01 0.85234161054E+01 0.13754124241E+02 0.23406255815E+02 0.38164499078E+02
 0.57416533061E+02 0.79997694093E+02 0.10460177676E+03 0.12913460896E+03 0.14985871537E+03
 0.16197898404E+03 0.14427136601E+03 0.12913379565E+03 0.10825211209E+03 0.85480662632E+02
 0.63448270996E+02 0.43797075646E+02 0.27869086745E+02 0.16648473056E+02 0.10065136268E+02
 0.66758000743E+01 0.46904721722E+01 0.35849998313E+01 0.30645244483E+01 0.29160862430E+01
 0.30645393375E+01 0.35850145655E+01 0.46904709622E+01 0.66757813591E+01 0.10065116690E+02
 0.16648471345E+02 0.27869103880E+02 0.43797082834E+02 0.63448227294E+02 0.85480538903E+02
 0.10825192329E+03 0.12913360086E+03 0.14427124151E+03 0.14985837495E+03 0.12020891611E+03
 0.10460321657E+03 0.85482002853E+02 0.65585429908E+02 0.46886562895E+02 0.30952369316E+02
 0.19023657696E+02 0.11499052847E+02 0.74771128126E+01 0.51946621467E+01 0.38415547296E+01
 0.31391877002E+01 0.28523470439E+01 0.28541627826E+01 0.31412682040E+01 0.38401219182E+01
 0.51924634094E+01 0.74780200672E+01 0.11500992832E+02 0.19023098864E+02 0.30951089608E+02
 0.46887767996E+02 0.65587342256E+02 0.85481211946E+02 0.10460074772E+03 0.12020771659E+03
 0.12913356964E+03 0.12913360916E+03 0.94495137363E+02 0.79999310088E+02 0.63449383976E+02
 0.46887217399E+02 0.32050355957E+02 0.20361189309E+02 0.12530646936E+02 0.81087923765E+01
 0.56213749664E+01 0.40838549460E+01 0.32308370553E+01 0.28205140264E+01 0.27004531048E+01
 0.28205287361E+01 0.32308535711E+01 0.40838582884E+01 0.56213623374E+01 0.81087765769E+01
 0.12530648683E+02 0.20361219428E+02 0.32050406684E+02 0.46887265149E+02 0.63449402795E+02
 0.79999294675E+02 0.94495101987E+02 0.10460140222E+03 0.10825303627E+03 0.10460143146E+03
 0.70086571310E+02 0.57415930489E+02 0.43797220027E+02 0.30952544910E+02 0.20360359211E+02
 0.12904187311E+02 0.84646897542E+01 0.59122204849E+01 0.42745909236E+01 0.33140249453E+01
 0.28092208975E+01 0.25960901996E+01 0.25941740388E+01 0.28071516044E+01 0.33157456033E+01
 0.42768210189E+01 0.59109462100E+01 0.84626644987E+01 0.12905062920E+02 0.20361563507E+02
 0.30950907560E+02 0.43795669811E+02 0.57417805247E+02 0.70089038377E+02 0.79998464577E+02
 0.85481036351E+02 0.85482054719E+02 0.79998869491E+02 0.48520626833E+02 0.38162576022E+02
 0.27869086745E+02 0.19024084973E+02 0.12529533956E+02 0.84627778754E+01 0.60138264930E+01
 0.43833841922E+01 0.33768853751E+01 0.28060021684E+01 0.25233230291E+01 0.24393797625E+01
 0.25233181722E+01 0.28059991201E+01 0.33768909835E+01 0.43833950215E+01 0.60138313087E+01
 0.84627629857E+01 0.12529500558E+02 0.19024051951E+02 0.27869080380E+02 0.38162620169E+02
 0.48520713753E+02 0.57418056930E+02 0.63448289815E+02 0.65585605971E+02 0.63448227294E+02
 0.57417960141E+02 0.30967250273E+02 0.23405887073E+02 0.16648549244E+02 0.11500316880E+02
 0.81094019061E+01 0.59107808572E+01 0.43816928818E+01 0.34007461641E+01 0.28102561657E+01
 0.24806878483E+01 0.23350367590E+01 0.23364545149E+01 0.24821579752E+01 0.28088516145E+01
 0.33990483997E+01 0.43827234506E+01 0.59123931452E+01 0.81089100090E+01 0.11499679537E+02
 0.16649793849E+02 0.23406474079E+02 0.30965166081E+02 0.38163092420E+02 0.43797109439E+02
 0.46887874678E+02 0.46886503962E+02 0.43795787587E+02 0.38164763308E+02 0.18411072741E+02
 0.13755494247E+02 0.10064559667E+02 0.74777673163E+01 0.56230645479E+01 0.42754210216E+01
 0.33763087735E+01 0.28096466361E+01 0.24683800936E+01 0.22842564224E+01 0.22256365960E+01
 0.22842404347E+01 0.24683615314E+01 0.28096410758E+01 0.33763221867E+01 0.42754421204E+01
 0.56230719507E+01 0.74777464087E+01 0.10064503607E+02 0.13755424994E+02 0.18411007862E+02
 0.23405864550E+02 0.27868503778E+02 0.30951737658E+02 0.32052096266E+02 0.30951744112E+02
 0.27868527278E+02 0.23405910515E+02 0.10908855088E+02 0.85237631114E+01 0.66749041833E+01
 0.51937974693E+01 0.40840651197E+01 0.33150652172E+01 0.28068737754E+01 0.24810872041E+01
 0.22844665962E+01 0.21901633228E+01 0.21896287678E+01 0.22839552705E+01 0.24817676399E+01
 0.28077188845E+01 0.33147143349E+01 0.40831179672E+01 0.51933671915E+01 0.66747420720E+01
 0.85235511282E+01 0.10909414324E+02 0.13755635168E+02 0.16649394493E+02 0.19022759997E+02
 0.20360523235E+02 0.20361429602E+02 0.19023963541E+02 0.16648946888E+02 0.13754259368E+02
 0.70873049255E+01 0.57905061130E+01 0.46904721722E+01 0.38408200571E+01 0.32297240754E+01
 0.28084709682E+01 0.25233230291E+01 0.23355661197E+01 0.22262131977E+01 0.21899191104E+01
 0.22262162906E+01 0.23355696711E+01 0.25233250469E+01 0.28084763398E+01 0.32297402567E+01
 0.38408585189E+01 0.46905258963E+01 0.57905628624E+01 0.70873450566E+01 0.85236811331E+01
 0.10065080209E+02 0.11500369236E+02 0.12529500558E+02 0.12904152653E+02 0.12529535703E+02
 0.11500418497E+02 0.10065116690E+02 0.85236812366E+01 0.49328540005E+01 0.41834698097E+01
 0.35856520837E+01 0.31398756688E+01 0.28205474914E+01 0.25952266366E+01 0.24382645168E+01
 0.23358784503E+01 0.22842738997E+01 0.22841319793E+01 0.23356163749E+01 0.24380511131E+01
 0.25950298462E+01 0.28205740143E+01 0.31405639968E+01 0.35867776290E+01 0.41839454762E+01
 0.49320619137E+01 0.57904492286E+01 0.66745653632E+01 0.74777798736E+01 0.81094860737E+01
 0.84638113015E+01 0.84635280617E+01 0.81088100418E+01 0.74773320986E+01 0.66750621769E+01
 0.57917014968E+01 0.37279955265E+01 0.33527662860E+01 0.30644374346E+01 0.28530015475E+01
 0.27016530985E+01 0.25950041369E+01 0.25232311585E+01 0.24815484456E+01 0.24678719436E+01
 0.24815574662E+01 0.25232380332E+01 0.25949963813E+01 0.27016259464E+01 0.28529681250E+01
 0.30644155289E+01 0.33527733088E+01 0.37280357615E+01 0.41839120113E+01 0.46904388825E+01
 0.51931570178E+01 0.56225823628E+01 0.59117836156E+01 0.60137442950E+01 0.59117763081E+01
 0.56225623310E+01 0.51931179131E+01 0.46903839485E+01 0.41838536882E+01 0.31591230379E+01
 0.30147534491E+01 0.29153575807E+01 0.28534653340E+01 0.28205716811E+01 0.28080246474E+01
 0.28070379559E+01 0.28094181991E+01 0.28096840208E+01 0.28075516558E+01 0.28083532260E+01
 0.28205645342E+01 0.28530110700E+01 0.29143840522E+01 0.30138181595E+01 0.31592106865E+01
 0.33528162538E+01 0.35867871091E+01 0.38408957427E+01 0.40832851959E+01 0.42754850654E+01
 0.43821568660E+01 0.43822702958E+01 0.42759479758E+01 0.40839012334E+01 0.38408193669E+01
 0.35856573378E+01 0.33516135886E+01 0.29961999653E+01 0.30139134371E+01 0.30645393375E+01
 0.31406137003E+01 0.32297405912E+01 0.33149155052E+01 0.33768909835E+01 0.33996579293E+01
 0.33768987883E+01 0.33149245087E+01 0.32297402567E+01 0.31405974617E+01 0.30645025426E+01
 0.30138611045E+01 0.29961423288E+01 0.30138611045E+01 0.30645025426E+01 0.31405974617E+01
 0.32297402567E+01 0.33149245087E+01 0.33768987883E+01 0.33996579293E+01 0.33768909835E+01
 0.33149155052E+01 0.32297405912E+01 0.31406137003E+01 0.30645393375E+01 0.30139134371E+01
 0.31591230379E+01 0.33516135886E+01 0.35856573378E+01 0.38408193669E+01 0.40839012334E+01
 0.42759479758E+01 0.43822702958E+01 0.43821568660E+01 0.42754850654E+01 0.40832851959E+01
 0.38408957427E+01 0.35867871091E+01 0.33528162538E+01 0.31592106865E+01 0.30138181595E+01
 0.29143840522E+01 0.28530110700E+01 0.28205645342E+01 0.28083532260E+01 0.28075516558E+01
 0.28096840208E+01 0.28094181991E+01 0.28070379559E+01 0.28080246474E+01 0.28205716811E+01
 0.28534653340E+01 0.29153575807E+01 0.30147534491E+01 0.37279955265E+01 0.41838536882E+01
 0.46903839485E+01 0.51931179131E+01 0.56225623310E+01 0.59117763081E+01 0.60137442950E+01
 0.59117836156E+01 0.56225823628E+01 0.51931570178E+01 0.46904388825E+01 0.41839120113E+01
 0.37280357615E+01 0.33527733088E+01 0.30644155289E+01 0.28529681250E+01 0.27016259464E+01
 0.25949963813E+01 0.25232380332E+01 0.24815574662E+01 0.24678719436E+01 0.24815484456E+01
 0.25232311585E+01 0.25950041369E+01 0.27016530985E+01 0.28530015475E+01 0.30644374346E+01
 0.33527662860E+01 0.49328540005E+01 0.57917014968E+01 0.66750621769E+01 0.74773320986E+01
 0.81088100418E+01 0.84635280617E+01 0.84638113015E+01 0.81094860737E+01 0.74777798736E+01
 0.66745653632E+01 0.57904492286E+01 0.49320619137E+01 0.41839454762E+01 0.35867776290E+01
 0.31405639968E+01 0.28205740143E+01 0.25950298462E+01 0.24380511131E+01 0.23356163749E+01
 0.22841319793E+01 0.22842738997E+01 0.23358784503E+01 0.24382645168E+01 0.25952266366E+01
 0.28205474914E+01 0.31398756688E+01 0.35856520837E+01 0.41834698097E+01 0.70873049255E+01
 0.85236812366E+01 0.10065116690E+02 0.11500418497E+02 0.12529535703E+02 0.12904152653E+02
 0.12529500558E+02 0.11500369236E+02 0.10065080209E+02 0.85236811331E+01 0.70873450566E+01
 0.57905628624E+01 0.46905258963E+01 0.38408585189E+01 0.32297402567E+01 0.28084763398E+01
 0.25233250469E+01 0.23355696711E+01 0.22262162906E+01 0.21899191104E+01 0.22262131977E+01
 0.23355661197E+01 0.25233230291E+01 0.28084709682E+01 0.32297240754E+01 0.38408200571E+01
 0.46904721722E+01 0.57905061130E+01 0.10908855088E+02 0.13754259368E+02 0.16648946888E+02
 0.19023963541E+02 0.20361429602E+02 0.20360523235E+02 0.19022759997E+02 0.16649394493E+02
 0.13755635168E+02 0.10909414324E+02 0.85235511282E+01 0.66747420720E+01 0.51933671915E+01
 0.40831179672E+01 0.33147143349E+01 0.28077188845E+01 0.24817676399E+01 0.22839552705E+01
 0.21896287678E+01 0.21901633228E+01 0.22844665962E+01 0.24810872041E+01 0.28068737754E+01
 0.33150652172E+01 0.40840651197E+01 0.51937974693E+01 0.66749041833E+01 0.85237631114E+01
 0.18411072741E+02 0.23405910515E+02 0.27868527278E+02 0.30951744112E+02 0.32052096266E+02
 0.30951737658E+02 0.27868503778E+02 0.23405864550E+02 0.18411007862E+02 0.13755424994E+02
 0.10064503607E+02 0.74777464087E+01 0.56230719507E+01 0.42754421204E+01 0.33763221867E+01
 0.28096410758E+01 0.24683615314E+01 0.22842404347E+01 0.22256365960E+01 0.22842564224E+01
 0.24683800936E+01 0.28096466361E+01 0.33763087735E+01 0.42754210216E+01 0.56230645479E+01
 0.74777673163E+01 0.10064559667E+02 0.13755494247E+02 0.30967250273E+02 0.38164763308E+02
 0.43795787587E+02 0.46886503962E+02 0.46887874678E+02 0.43797109439E+02 0.38163092420E+02
 0.30965166081E+02 0.23406474079E+02 0.16649793849E+02 0.11499679537E+02 0.81089100090E+01
 0.59123931452E+01 0.43827234506E+01 0.33990483997E+01 0.28088516145E+01 0.24821579752E+01
 0.23364545149E+01 0.23350367590E+01 0.24806878483E+01 0.28102561657E+01 0.34007461641E+01
 0.43816928818E+01 0.59107808572E+01 0.81094019061E+01 0.11500316880E+02 0.16648549244E+02
 0.23405887073E+02 0.48520626833E+02 0.57417960141E+02 0.63448227294E+02 0.65585605971E+02
 0.63448289815E+02 0.57418056930E+02 0.48520713753E+02 0.38162620169E+02 0.27869080380E+02
 0.19024051951E+02 0.12529500558E+02 0.84627629857E+01 0.60138313087E+01 0.43833950215E+01
 0.33768909835E+01 0.28059991201E+01 0.25233181722E+01 0.24393797625E+01 0.25233230291E+01
 0.28060021684E+01 0.33768853751E+01 0.43833841922E+01 0.60138264930E+01 0.84627778754E+01
 0.12529533956E+02 0.19024084973E+02 0.27869086745E+02 0.38162576022E+02 0.70086571310E+02
 0.79998869491E+02 0.85482054719E+02 0.85481036351E+02 0.79998464577E+02 0.70089038377E+02
 0.57417805247E+02 0.43795669811E+02 0.30950907560E+02 0.20361563507E+02 0.12905062920E+02
 0.84626644987E+01 0.59109462100E+01 0.42768210189E+01 0.33157456033E+01 0.28071516044E+01
 0.25941740388E+01 0.25960901996E+01 0.28092208975E+01 0.33140249453E+01 0.42745909236E+01
 0.59122204849E+01 0.84646897542E+01 0.12904187311E+02 0.20360359211E+02 0.30952544910E+02
 0.43797220027E+02 0.57415930489E+02 0.94495137363E+02 0.10460143146E+03 0.10825303627E+03
 0.10460140222E+03 0.94495101987E+02 0.79999294675E+02 0.63449402795E+02 0.46887265149E+02
 0.32050406684E+02 0.20361219428E+02 0.12530648683E+02 0.81087765769E+01 0.56213623374E+01
 0.40838582884E+01 0.32308535711E+01 0.28205287361E+01 0.27004531048E+01 0.28205140264E+01
 0.32308370553E+01 0.40838549460E+01 0.56213749664E+01 0.81087923765E+01 0.12530646936E+02
 0.20361189309E+02 0.32050355957E+02 0.46887217399E+02 0.63449383976E+02 0.79999310088E+02
 0.12020891611E+03 0.12913360916E+03 0.12913356964E+03 0.12020771659E+03 0.10460074772E+03
 0.85481211946E+02 0.65587342256E+02 0.46887767996E+02 0.30951089608E+02 0.19023098864E+02
 0.11500992832E+02 0.74780200672E+01 0.51924634094E+01 0.38401219182E+01 0.31412682040E+01
 0.28541627826E+01 0.28523470439E+01 0.31391877002E+01 0.38415547296E+01 0.51946621467E+01
 0.74771128126E+01 0.11499052847E+02 0.19023657696E+02 0.30952369316E+02 0.46886562895E+02
 0.65585429908E+02 0.85482002853E+02 0.10460321657E+03 0.14427136601E+03 0.14985837495E+03
 0.14427124151E+03 0.12913360086E+03 0.10825192329E+03 0.85480538903E+02 0.63448227294E+02
 0.43797082834E+02 0.27869103880E+02 0.16648471345E+02 0.10065116690E+02 0.66757813591E+01
 0.46904709622E+01 0.35850145655E+01 0.30645393375E+01 0.29160862430E+01 0.30645244483E+01
 0.35849998313E+01 0.46904721722E+01 0.66758000743E+01 0.10065136268E+02 0.16648473056E+02
 0.27869086745E+02 0.43797075646E+02 0.63448270996E+02 0.85480662632E+02 0.10825211209E+03
 0.12913379565E+03 0.16197812409E+03 0.16197898404E+03 0.14985871537E+03 0.12913460896E+03
 0.10460177676E+03 0.79997694093E+02 0.57416533061E+02 0.38164499078E+02 0.23406255815E+02
 0.13754124241E+02 0.85234161054E+01 0.57920133319E+01 0.41841989882E+01 0.33513112335E+01
 0.30135681371E+01 0.30150558042E+01 0.33531115860E+01 0.41831579746E+01 0.57900806442E+01
 0.85238982378E+01 0.13755839547E+02 0.23406151302E+02 0.38163312503E+02 0.57417105887E+02
 0.79999655388E+02 0.10460221676E+03 0.12913276463E+03 0.14985653167E+03 0.16197812409E+03
 0.14985653167E+03 0.12913276463E+03 0.10460221676E+03 0.79999655388E+02 0.57417105887E+02
 0.38163312503E+02 0.23406151302E+02 0.13755839547E+02 0.85238982378E+01 0.57900806442E+01
 0.41831579746E+01 0.33531115860E+01 0.30150558042E+01 0.30135681371E+01 0.33513112335E+01
 0.41841989882E+01 0.57920133319E+01 0.85234161054E+01 0.13754124241E+02 0.23406255815E+02
 0.38164499078E+02 0.57416533061E+02 0.79997694093E+02 0.10460177676E+03 0.12913460896E+03
 0.14985871537E+03 0.16197898404E+03 0.14985599043E+03 0.13390513494E+03 0.11201993847E+03
 0.88322844669E+02 0.65543885693E+02 0.45289959365E+02 0.28848653829E+02 0.17206216405E+02
 0.10334390562E+02 0.68120381607E+01 0.47717826054E+01 0.36340861906E+01 0.30987562857E+01
 0.29463538884E+01 0.30990206738E+01 0.36341708949E+01 0.47715891706E+01 0.68119665932E+01
 0.10334659255E+02 0.17206535297E+02 0.28848522617E+02 0.45288945350E+02 0.65542060676E+02
 0.88321459959E+02 0.11202090888E+03 0.13390868760E+03 0.14985938205E+03 0.15576083647E+03
 0.12913248352E+03 0.11202037074E+03 0.91299116331E+02 0.69995261371E+02 0.50116104279E+02
 0.33159434348E+02 0.20357127967E+02 0.12182741700E+02 0.78029389490E+01 0.53876089710E+01
 0.39553090370E+01 0.32127138018E+01 0.29102670860E+01 0.29120432431E+01 0.32148049622E+01
 0.39540025143E+01 0.53854387452E+01 0.78037684603E+01 0.12184834301E+02 0.20356840832E+02
 0.33157705002E+02 0.50115783662E+02 0.69995727067E+02 0.91298622028E+02 0.11202020646E+03
 0.12913404340E+03 0.13899825326E+03 0.13899708191E+03 0.10460167397E+03 0.88323440989E+02
 0.69996750745E+02 0.51823310938E+02 0.35534139717E+02 0.22562259402E+02 0.13722605703E+02
 0.86817817066E+01 0.59493919848E+01 0.42763704394E+01 0.33486581064E+01 0.29052477170E+01
 0.27761582769E+01 0.29050413814E+01 0.33486654397E+01 0.42765756495E+01 0.59493261301E+01
 0.86814333496E+01 0.13722556751E+02 0.22562780113E+02 0.35534836146E+02 0.51823724370E+02
 0.69996685361E+02 0.88322723077E+02 0.10460036792E+03 0.11609378174E+03 0.12027692555E+03
 0.11609490765E+03 0.79998530164E+02 0.65543185591E+02 0.50117480507E+02 0.35535895842E+02
 0.23352658948E+02 0.14595895821E+02 0.93042081594E+01 0.63832908394E+01 0.45537371100E+01
 0.34795608398E+01 0.29195614632E+01 0.26856932383E+01 0.26836852206E+01 0.29173770491E+01
 0.34813213872E+01 0.45560039453E+01 0.63818336541E+01 0.93020417420E+01 0.14597220507E+02
 0.23354895452E+02 0.35535028371E+02 0.50115621930E+02 0.65543857233E+02 0.79999819948E+02
 0.91436514832E+02 0.97825731250E+02 0.97826865454E+02 0.91437489521E+02 0.57416654568E+02
 0.45288232482E+02 0.33158928848E+02 0.22563409477E+02 0.14596688530E+02 0.95277166795E+01
 0.66166407917E+01 0.47458529362E+01 0.35890151442E+01 0.29395190162E+01 0.26226775178E+01
 0.25296145839E+01 0.26226487917E+01 0.29395338974E+01 0.35891133458E+01 0.47460205329E+01
 0.66168403651E+01 0.95278133496E+01 0.14596455883E+02 0.22562807889E+02 0.33158357377E+02
 0.45288240313E+02 0.57417376852E+02 0.67857551981E+02 0.74974836544E+02 0.77508621550E+02
 0.74974149016E+02 0.67856545953E+02 0.38164366975E+02 0.28847911160E+02 0.20355845656E+02
 0.13722344360E+02 0.93041653237E+01 0.66159674169E+01 0.48115187604E+01 0.36514545426E+01
 0.29615732096E+01 0.25841357790E+01 0.24203615463E+01 0.24219176690E+01 0.25857721615E+01
 0.29601408684E+01 0.36498182775E+01 0.48128686829E+01 0.66176264436E+01 0.93029878124E+01
 0.13720866590E+02 0.20357113689E+02 0.28849459469E+02 0.38163173674E+02 0.46932290786E+02
 0.53767855715E+02 0.57517267280E+02 0.57516255453E+02 0.53767153889E+02 0.46933959546E+02
 0.23407368705E+02 0.17206908590E+02 0.12182535672E+02 0.86817497516E+01 0.63832901366E+01
 0.47447894554E+01 0.36500124565E+01 0.29690075285E+01 0.25681897319E+01 0.23571749372E+01
 0.22910806139E+01 0.23572242124E+01 0.25681750409E+01 0.29688458809E+01 0.36497524134E+01
 0.47446163638E+01 0.63834870728E+01 0.86824565322E+01 0.12183421685E+02 0.17207254624E+02
 0.23406747146E+02 0.29915936937E+02 0.35644665387E+02 0.39569221606E+02 0.40964972242E+02
 0.39569735531E+02 0.35645725328E+02 0.29917154499E+02 0.13755815531E+02 0.10334859953E+02
 0.78032629341E+01 0.59500293787E+01 0.45548383176E+01 0.35893843082E+01 0.29605518374E+01
 0.25670634342E+01 0.23361359288E+01 0.22278318171E+01 0.22271573801E+01 0.23354318584E+01
 0.25676859448E+01 0.29612377243E+01 0.35888019612E+01 0.45542086260E+01 0.59506450203E+01
 0.78038936393E+01 0.10334230999E+02 0.13755159066E+02 0.17805254262E+02 0.21849934909E+02
 0.25118074341E+02 0.26943363914E+02 0.26944062380E+02 0.25118862617E+02 0.21849457037E+02
 0.17804712630E+02 0.85234256649E+01 0.68116367489E+01 0.53871460560E+01 0.42762194515E+01
 0.34803374684E+01 0.29408444875E+01 0.25848442638E+01 0.23569277202E+01 0.22274416268E+01
 0.21851460588E+01 0.22274976962E+01 0.23569549981E+01 0.25849962915E+01 0.29412698977E+01
 0.34806271156E+01 0.42757361996E+01 0.53860387407E+01 0.68109303968E+01 0.85238026218E+01
 0.10614776132E+02 0.12938453355E+02 0.15103291311E+02 0.16645056179E+02 0.17203782168E+02
 0.16645273668E+02 0.15103235796E+02 0.12937735366E+02 0.10613759935E+02 0.57904229436E+01
 0.47717318688E+01 0.39547411173E+01 0.33477076954E+01 0.29188098451E+01 0.26227005223E+01
 0.24210759378E+01 0.22918289708E+01 0.22274662935E+01 0.22274858887E+01 0.22918444140E+01
 0.24210466748E+01 0.26226803333E+01 0.29188445703E+01 0.33477520119E+01 0.39547636620E+01
 0.47717783076E+01 0.57905125355E+01 0.69434912846E+01 0.81438775439E+01 0.93227522825E+01
 0.10298955136E+02 0.10856962918E+02 0.10856930836E+02 0.10298926248E+02 0.93227978561E+01
 0.81439238563E+01 0.69434440339E+01 0.41837156028E+01 0.36347733102E+01 0.32131654383E+01
 0.29052174505E+01 0.26850314550E+01 0.25285477439E+01 0.24211358294E+01 0.23572259009E+01
 0.23358965237E+01 0.23572020672E+01 0.24209638025E+01 0.25281233425E+01 0.26845839155E+01
 0.29053236275E+01 0.32141001547E+01 0.36359268044E+01 0.41840639032E+01 0.48459297076E+01
 0.55736159139E+01 0.62859584687E+01 0.68856244175E+01 0.72869746427E+01 0.74291515999E+01
 0.72865460684E+01 0.68853524712E+01 0.62864309064E+01 0.55746907594E+01 0.48466794424E+01
 0.33528233111E+01 0.30989684182E+01 0.29108541100E+01 0.27770530896E+01 0.26845221691E+01
 0.26227587908E+01 0.25850138428E+01 0.25673066049E+01 0.25674216858E+01 0.25851303942E+01
 0.26226427236E+01 0.26843851567E+01 0.27771235772E+01 0.29109329758E+01 0.30988503181E+01
 0.33527328311E+01 0.36758939510E+01 0.40556860457E+01 0.44595390565E+01 0.48374088323E+01
 0.51318926602E+01 0.52932610228E+01 0.52931547299E+01 0.51317880439E+01 0.48375117295E+01
 0.44596219699E+01 0.40555347636E+01 0.36757444525E+01 0.30145707816E+01 0.29457935692E+01
 0.29115884768E+01 0.29050506048E+01 0.29181479422E+01 0.29407004613E+01 0.29608557851E+01
 0.29687579711E+01 0.29608408073E+01 0.29411109903E+01 0.29188676299E+01 0.29052456090E+01
 0.29108001478E+01 0.29446018124E+01 0.30139051024E+01 0.31229885007E+01 0.32704924096E+01
 0.34463420041E+01 0.36304861746E+01 0.37950511491E+01 0.39100746619E+01 0.39517633131E+01
 0.39106356968E+01 0.37954570427E+01 0.36301793199E+01 0.34454644798E+01 0.32696348307E+01
 0.31227522590E+01 0.30139282972E+01 0.30989304402E+01 0.32142103548E+01 0.33477512664E+01
 0.34805969592E+01 0.35891011920E+01 0.36505059813E+01 0.36505362611E+01 0.35891375583E+01
 0.34805790927E+01 0.33477253242E+01 0.32142227205E+01 0.30989222997E+01 0.30138515260E+01
 0.29643336304E+01 0.29498774056E+01 0.29655004642E+01 0.30029340740E+01 0.30509282636E+01
 0.30954951528E+01 0.31224110541E+01 0.31223773159E+01 0.30954554086E+01 0.30509527023E+01
 0.30029766755E+01 0.29655073739E+01 0.29498979457E+01 0.29644136932E+01 0.33518694485E+01
 0.36348483555E+01 0.39544455552E+01 0.42765486027E+01 0.45553470691E+01 0.47449482344E+01
 0.48120796599E+01 0.47446212720E+01 0.45546789887E+01 0.42759790856E+01 0.39546739276E+01
 0.36359300240E+01 0.33529390957E+01 0.31230659616E+01 0.29497506368E+01 0.28267803642E+01
 0.27435978260E+01 0.26902415343E+01 0.26591944695E+01 0.26441773775E+01 0.26397997648E+01
 0.26438430123E+01 0.26588166143E+01 0.26901992986E+01 0.27441219415E+01 0.28277182446E+01
 0.29504768729E+01 0.31228905032E+01 0.41839125415E+01 0.47717999950E+01 0.53860206323E+01
 0.59502187644E+01 0.63826724309E+01 0.66169493612E+01 0.66168626421E+01 0.63826154132E+01
 0.59503825895E+01 0.53861743948E+01 0.47717392140E+01 0.41838645395E+01 0.36758957792E+01
 0.32706257418E+01 0.29654268471E+01 0.27433915455E+01 0.25843233016E+01 0.24724929892E+01
 0.23996601032E+01 0.23634155953E+01 0.23635299472E+01 0.23997687791E+01 0.24723635280E+01
 0.25842033869E+01 0.27435287154E+01 0.29655807130E+01 0.32705255713E+01 0.36757426243E+01
 0.57915236146E+01 0.68113866106E+01 0.78033156315E+01 0.86814624754E+01 0.93028117289E+01
 0.95289602502E+01 0.93037025483E+01 0.86823857416E+01 0.78034934187E+01 0.68107518261E+01
 0.57905396058E+01 0.48458756828E+01 0.40555548530E+01 0.34463223407E+01 0.30029887289E+01
 0.26901863988E+01 0.24723618812E+01 0.23250810629E+01 0.22374373260E+01 0.22078853770E+01
 0.22373462941E+01 0.23252814078E+01 0.24727410130E+01 0.26900650399E+01 0.30021429801E+01
 0.34454344170E+01 0.40554102050E+01 0.48465576419E+01 0.85238417131E+01 0.10334484346E+02
 0.12184165419E+02 0.13721724359E+02 0.14596571866E+02 0.14596364421E+02 0.13721480020E+02
 0.12184285093E+02 0.10334639668E+02 0.85236726881E+01 0.69433903224E+01 0.55738234622E+01
 0.44596931484E+01 0.36303570655E+01 0.30508539890E+01 0.26594032887E+01 0.23998156789E+01
 0.22373097974E+01 0.21577516285E+01 0.21579136417E+01 0.22374633157E+01 0.23996390256E+01
 0.26592384050E+01 0.30510219818E+01 0.36304933089E+01 0.44594720344E+01 0.55736177201E+01
 0.69435449961E+01 0.13754968727E+02 0.17207195245E+02 0.20356982693E+02 0.22562758904E+02
 0.23354533927E+02 0.22561727367E+02 0.20356027260E+02 0.17207265370E+02 0.13755924397E+02
 0.10615009856E+02 0.81434882647E+01 0.62859675259E+01 0.48379161389E+01 0.37951292903E+01
 0.30950752174E+01 0.26441832150E+01 0.23639218706E+01 0.22079448183E+01 0.21574173544E+01
 0.22080649361E+01 0.23638453833E+01 0.26438718531E+01 0.30949635512E+01 0.37955711208E+01
 0.48387037843E+01 0.62864781671E+01 0.81432323414E+01 0.10614051249E+02 0.23406381314E+02
 0.28849123612E+02 0.33157860296E+02 0.35535321303E+02 0.35536279094E+02 0.33158862551E+02
 0.28848272971E+02 0.23405467831E+02 0.17805403778E+02 0.12938987334E+02 0.93222915597E+01
 0.68850157262E+01 0.51323064348E+01 0.39106123919E+01 0.31219248472E+01 0.26391890955E+01
 0.23639418936E+01 0.22378836083E+01 0.22369028382E+01 0.23629427207E+01 0.26401481723E+01
 0.31229454169E+01 0.39097040640E+01 0.51313108739E+01 0.68859121516E+01 0.93233124866E+01
 0.12938208648E+02 0.17804563114E+02 0.38164024607E+02 0.45289284238E+02 0.50115307169E+02
 0.51822821185E+02 0.50116400940E+02 0.45290306085E+02 0.38163865352E+02 0.29914930278E+02
 0.21849539084E+02 0.15104031611E+02 0.10298963047E+02 0.72859866701E+01 0.52931325542E+01
 0.39526625203E+01 0.31224182328E+01 0.26428608035E+01 0.23996430139E+01 0.23262002783E+01
 0.23997570188E+01 0.26428950820E+01 0.31224214902E+01 0.39528108670E+01 0.52931867502E+01
 0.72855046149E+01 0.10298195138E+02 0.15103919340E+02 0.21850506421E+02 0.29916112140E+02
 0.57416067707E+02 0.65542807357E+02 0.69995951365E+02 0.69994931173E+02 0.65542313904E+02
 0.57418206304E+02 0.46933797396E+02 0.35644602017E+02 0.25117578445E+02 0.16645839642E+02
 0.10857755136E+02 0.74284362671E+01 0.52924053252E+01 0.39114178458E+01 0.30962743141E+01
 0.26581067439E+01 0.24716196061E+01 0.24735250638E+01 0.26601315851E+01 0.30945459690E+01
 0.39093732941E+01 0.52939855745E+01 0.74304936623E+01 0.10856417894E+02 0.16644033546E+02
 0.25119043135E+02 0.35646522635E+02 0.46932452937E+02 0.79996954260E+02 0.88322149925E+02
 0.91300368181E+02 0.88322691862E+02 0.79997875049E+02 0.67856505025E+02 0.53768378338E+02
 0.39569222345E+02 0.26942537376E+02 0.17204037124E+02 0.10858143093E+02 0.72865451194E+01
 0.51307056282E+01 0.37955554767E+01 0.30521317002E+01 0.26901951300E+01 0.25831224945E+01
 0.26901460495E+01 0.30521235708E+01 0.37955611146E+01 0.51306294460E+01 0.72865061657E+01
 0.10858433650E+02 0.17204686184E+02 0.26943123459E+02 0.39569250588E+02 0.53767748895E+02
 0.67855521802E+02 0.10460063199E+03 0.11202026402E+03 0.11202167653E+03 0.10460214252E+03
 0.91436495282E+02 0.74974100645E+02 0.57517404830E+02 0.40964990473E+02 0.26942941623E+02
 0.16644558079E+02 0.10299779697E+02 0.68860366989E+01 0.48366552314E+01 0.36294670995E+01
 0.30038019238E+01 0.27448017938E+01 0.27426703891E+01 0.30014311342E+01 0.36312437801E+01
 0.48390906521E+01 0.68846418789E+01 0.10297469352E+02 0.16645671589E+02 0.26945089472E+02
 0.40964250741E+02 0.57515818171E+02 0.74974903699E+02 0.91437509070E+02 0.12913415492E+03
 0.13390714936E+03 0.12913360878E+03 0.11609481577E+03 0.97826526868E+02 0.77508810190E+02
 0.57516996078E+02 0.39570677522E+02 0.25118491500E+02 0.15102098965E+02 0.93228497304E+01
 0.62873880261E+01 0.44595180306E+01 0.34444865562E+01 0.29655900342E+01 0.28286783448E+01
 0.29654784320E+01 0.34444761567E+01 0.44596310242E+01 0.62874428009E+01 0.93228124872E+01
 0.15102042209E+02 0.25118280646E+02 0.39570180807E+02 0.57516559614E+02 0.77509001887E+02
 0.97827387207E+02 0.11609577437E+03 0.14985961442E+03 0.14985881618E+03 0.13899716642E+03
 0.12027653658E+03 0.97826683471E+02 0.74973661531E+02 0.53767349361E+02 0.35647034252E+02
 0.21850331759E+02 0.12937206653E+02 0.81434049374E+01 0.55753483280E+01 0.40561598732E+01
 0.32691085775E+01 0.29494057145E+01 0.29511377857E+01 0.32711558178E+01 0.40548872659E+01
 0.55731997634E+01 0.81441838254E+01 0.12939252061E+02 0.21850000838E+02 0.35645211498E+02
 0.53767094730E+02 0.74974627874E+02 0.97826837261E+02 0.12027645959E+03 0.13899816875E+03
 0.16198004922E+03 0.15576154558E+03 0.13899703460E+03 0.11609487005E+03 0.91437350751E+02
 0.67855515419E+02 0.46932684314E+02 0.29917148856E+02 0.17805696999E+02 0.10614034860E+02
 0.69428577583E+01 0.48466721107E+01 0.36764789509E+01 0.31228799518E+01 0.29637995255E+01
 0.31228799518E+01 0.36764789509E+01 0.48466721107E+01 0.69428577583E+01 0.10614034860E+02
 0.17805696999E+02 0.29917148856E+02 0.46932684314E+02 0.67855515419E+02 0.91437350751E+02
 0.11609487005E+03 0.13899703460E+03 0.15576154558E+03 0.14427136601E+03 0.12913379565E+03
 0.10825211209E+03 0.85480662632E+02 0.63448270996E+02 0.43797075646E+02 0.27869086745E+02
 0.16648473056E+02 0.10065136268E+02 0.66758000743E+01 0.46904721722E+01 0.35849998313E+01
 0.30645244483E+01 0.29160862430E+01 0.30645393375E+01 0.35850145655E+01 0.46904709622E+01
 0.66757813591E+01 0.10065116690E+02 0.16648471345E+02 0.27869103880E+02 0.43797082834E+02
 0.63448227294E+02 0.85480538903E+02 0.10825192329E+03 0.12913360086E+03 0.14427124151E+03
 0.14985837495E+03 0.12913248352E+03 0.11202037074E+03 0.91299116331E+02 0.69995261371E+02
 0.50116104279E+02 0.33159434348E+02 0.20357127967E+02 0.12182741700E+02 0.78029389490E+01
 0.53876089710E+01 0.39553090370E+01 0.32127138018E+01 0.29102670860E+01 0.29120432431E+01
 0.32148049622E+01 0.39540025143E+01 0.53854387452E+01 0.78037684603E+01 0.12184834301E+02
 0.20356840832E+02 0.33157705002E+02 0.50115783662E+02 0.69995727067E+02 0.91298622028E+02
 0.11202020646E+03 0.12913404340E+03 0.13899825326E+03 0.13899708191E+03 0.10825117365E+03
 0.91298536583E+02 0.72315893171E+02 0.53566149694E+02 0.36769794353E+02 0.23351302920E+02