   1   1   0   0
  0.2154672E+02  0.3123432E-09  0.3123432E-09  0.3123432E-09  0.5000000E-15
  1.000000000000000E-004
  CAR 
 unknown system                          
     25.08078644     -2.53232838  301      5.60801241      1.00000000
     -2.532  0.0000E+00  0.0000E+00
     -2.440  0.0000E+00  0.0000E+00
     -2.348  0.0000E+00  0.0000E+00
     -2.256  0.0000E+00  0.0000E+00
     -2.164 -0.7983E-31 -0.7348E-32
     -2.072 -0.1112E-27 -0.1024E-28
     -1.980 -0.1011E-24 -0.9317E-26
     -1.888 -0.5993E-22 -0.5526E-23
     -1.796 -0.2314E-19 -0.2135E-20
     -1.704 -0.5659E-17 -0.5230E-18
     -1.612 -0.9181E-15 -0.8503E-16
     -1.520 -0.9674E-13 -0.8989E-14
     -1.428 -0.6588E-11 -0.6154E-12
     -1.336 -0.2888E-09 -0.2720E-10
     -1.244 -0.8101E-08 -0.7729E-09
     -1.152 -0.1439E-06 -0.1402E-07
     -1.060 -0.1592E-05 -0.1605E-06
     -0.968 -0.1058E-04 -0.1134E-05
     -0.876 -0.3886E-04 -0.4711E-05
     -0.783 -0.5594E-04 -0.9860E-05
     -0.691  0.9123E-04 -0.1463E-05
     -0.599  0.4964E-03  0.4423E-04
     -0.507  0.9157E-03  0.1285E-03
     -0.415  0.1366E-02  0.2542E-03
     -0.323  0.2295E-02  0.4655E-03
     -0.231  0.3170E-02  0.7572E-03
     -0.139  0.3268E-02  0.1058E-02
     -0.047  0.3220E-02  0.1354E-02
      0.045  0.3284E-02  0.1657E-02
      0.137  0.3081E-02  0.1940E-02
      0.229  0.2797E-02  0.2198E-02
      0.321  0.4539E-02  0.2616E-02
      0.413  0.1372E-01  0.3878E-02
      0.505  0.3515E-01  0.7114E-02
      0.597  0.6919E-01  0.1348E-01
      0.689  0.1115E+00  0.2375E-01
      0.781  0.1488E+00  0.3745E-01
      0.873  0.1624E+00  0.5240E-01
      0.965  0.1491E+00  0.6612E-01
      1.057  0.1265E+00  0.7776E-01
      1.149  0.1147E+00  0.8832E-01
      1.241  0.1191E+00  0.9928E-01
      1.334  0.1285E+00  0.1111E+00
      1.426  0.1355E+00  0.1236E+00
      1.518  0.1495E+00  0.1373E+00
      1.610  0.1723E+00  0.1532E+00
      1.702  0.1826E+00  0.1700E+00
      1.794  0.1687E+00  0.1855E+00
      1.886  0.1491E+00  0.1993E+00
      1.978  0.1440E+00  0.2125E+00
      2.070  0.1509E+00  0.2264E+00
      2.162  0.1570E+00  0.2409E+00
      2.254  0.1562E+00  0.2552E+00
      2.346  0.1486E+00  0.2689E+00
      2.438  0.1411E+00  0.2819E+00
      2.530  0.1510E+00  0.2958E+00
      2.622  0.1761E+00  0.3120E+00
      2.714  0.1756E+00  0.3282E+00
      2.806  0.1224E+00  0.3394E+00
      2.898  0.5040E-01  0.3441E+00
      2.990  0.7270E-02  0.3447E+00
      3.082 -0.1268E-02  0.3446E+00
      3.174  0.5378E-02  0.3451E+00
      3.266  0.1173E-01  0.3462E+00
      3.358  0.1238E-01  0.3473E+00
      3.451  0.1059E-01  0.3483E+00
      3.543  0.8999E-02  0.3491E+00
      3.635  0.6472E-02  0.3497E+00
      3.727  0.3936E-02  0.3501E+00
      3.819  0.2804E-02  0.3504E+00
      3.911  0.3450E-02  0.3507E+00
      4.003  0.6368E-02  0.3513E+00
      4.095  0.1051E-01  0.3522E+00
      4.187  0.1401E-01  0.3535E+00
      4.279  0.1542E-01  0.3549E+00
      4.371  0.1264E-01  0.3561E+00
      4.463  0.6322E-02  0.3567E+00
      4.555  0.2501E-02  0.3569E+00
      4.647  0.4757E-02  0.3574E+00
      4.739  0.8267E-02  0.3581E+00
      4.831  0.8136E-02  0.3589E+00
      4.923  0.7858E-02  0.3596E+00
      5.015  0.1097E-01  0.3606E+00
      5.107  0.1306E-01  0.3618E+00
      5.199  0.1030E-01  0.3627E+00
      5.291  0.6989E-02  0.3634E+00
      5.383  0.8545E-02  0.3642E+00
      5.475  0.1168E-01  0.3652E+00
      5.568  0.1110E-01  0.3663E+00
      5.660  0.9745E-02  0.3672E+00
      5.752  0.1019E-01  0.3681E+00
      5.844  0.8859E-02  0.3689E+00
      5.936  0.5146E-02  0.3694E+00
      6.028  0.3787E-02  0.3697E+00
      6.120  0.8251E-02  0.3705E+00
      6.212  0.1597E-01  0.3720E+00
      6.304  0.1963E-01  0.3738E+00
      6.396  0.1630E-01  0.3753E+00
      6.488  0.1149E-01  0.3763E+00
      6.580  0.9195E-02  0.3772E+00
      6.672  0.7762E-02  0.3779E+00
      6.764  0.7243E-02  0.3786E+00
      6.856  0.8673E-02  0.3794E+00
      6.948  0.9385E-02  0.3802E+00
      7.040  0.7093E-02  0.3809E+00
      7.132  0.4839E-02  0.3813E+00
      7.224  0.7239E-02  0.3820E+00
      7.316  0.1241E-01  0.3831E+00
      7.408  0.1411E-01  0.3844E+00
      7.500  0.1149E-01  0.3855E+00
      7.592  0.8702E-02  0.3863E+00
      7.685  0.8548E-02  0.3871E+00
      7.777  0.1102E-01  0.3881E+00
      7.869  0.1263E-01  0.3893E+00
      7.961  0.1006E-01  0.3902E+00
      8.053  0.7009E-02  0.3908E+00
      8.145  0.8789E-02  0.3916E+00
      8.237  0.1186E-01  0.3927E+00
      8.329  0.1105E-01  0.3937E+00
      8.421  0.9817E-02  0.3946E+00
      8.513  0.1199E-01  0.3957E+00
      8.605  0.1345E-01  0.3970E+00
      8.697  0.1050E-01  0.3980E+00
      8.789  0.8711E-02  0.3988E+00
      8.881  0.1379E-01  0.4000E+00
      8.973  0.1950E-01  0.4018E+00
      9.065  0.1779E-01  0.4035E+00
      9.157  0.1332E-01  0.4047E+00
      9.249  0.1228E-01  0.4058E+00
      9.341  0.1026E-01  0.4068E+00
      9.433  0.5798E-02  0.4073E+00
      9.525  0.6097E-02  0.4079E+00
      9.617  0.1163E-01  0.4089E+00
      9.709  0.1440E-01  0.4102E+00
      9.802  0.1277E-01  0.4114E+00
      9.894  0.1209E-01  0.4125E+00
      9.986  0.1292E-01  0.4137E+00
     10.078  0.1187E-01  0.4148E+00
     10.170  0.8548E-02  0.4156E+00
     10.262  0.5557E-02  0.4161E+00
     10.354  0.5765E-02  0.4166E+00
     10.446  0.9708E-02  0.4175E+00
     10.538  0.1510E-01  0.4189E+00
     10.630  0.1885E-01  0.4207E+00
     10.722  0.1759E-01  0.4223E+00
     10.814  0.1073E-01  0.4233E+00
     10.906  0.5920E-02  0.4238E+00
     10.998  0.1134E-01  0.4249E+00
     11.090  0.2216E-01  0.4269E+00
     11.182  0.2540E-01  0.4292E+00
     11.274  0.1774E-01  0.4309E+00
     11.366  0.7971E-02  0.4316E+00
     11.458  0.4225E-02  0.4320E+00
     11.550  0.6263E-02  0.4326E+00
     11.642  0.9465E-02  0.4334E+00
     11.734  0.1221E-01  0.4346E+00
     11.826  0.1667E-01  0.4361E+00
     11.919  0.2174E-01  0.4381E+00
     12.011  0.2294E-01  0.4402E+00
     12.103  0.2089E-01  0.4421E+00
     12.195  0.1955E-01  0.4439E+00
     12.287  0.1786E-01  0.4456E+00
     12.379  0.1387E-01  0.4469E+00
     12.471  0.1049E-01  0.4478E+00
     12.563  0.8822E-02  0.4486E+00
     12.655  0.7192E-02  0.4493E+00
     12.747  0.8591E-02  0.4501E+00
     12.839  0.1497E-01  0.4515E+00
     12.931  0.2140E-01  0.4534E+00
     13.023  0.2297E-01  0.4555E+00
     13.115  0.1912E-01  0.4573E+00
     13.207  0.1406E-01  0.4586E+00
     13.299  0.1232E-01  0.4597E+00
     13.391  0.1312E-01  0.4609E+00
     13.483  0.1579E-01  0.4624E+00
     13.575  0.2085E-01  0.4643E+00
     13.667  0.2370E-01  0.4665E+00
     13.759  0.2128E-01  0.4685E+00
     13.851  0.1797E-01  0.4701E+00
     13.943  0.1695E-01  0.4717E+00
     14.036  0.1567E-01  0.4731E+00
     14.128  0.1216E-01  0.4742E+00
     14.220  0.8398E-02  0.4750E+00
     14.312  0.9387E-02  0.4759E+00
     14.404  0.1872E-01  0.4776E+00
     14.496  0.2956E-01  0.4803E+00
     14.588  0.2970E-01  0.4830E+00
     14.680  0.2054E-01  0.4849E+00
     14.772  0.1535E-01  0.4864E+00
     14.864  0.1770E-01  0.4880E+00
     14.956  0.1965E-01  0.4898E+00
     15.048  0.1769E-01  0.4914E+00
     15.140  0.1696E-01  0.4930E+00
     15.232  0.1986E-01  0.4948E+00
     15.324  0.1980E-01  0.4966E+00
     15.416  0.1403E-01  0.4979E+00
     15.508  0.1147E-01  0.4990E+00
     15.600  0.1760E-01  0.5006E+00
     15.692  0.2507E-01  0.5029E+00
     15.784  0.2618E-01  0.5053E+00
     15.876  0.2295E-01  0.5074E+00
     15.968  0.2067E-01  0.5093E+00
     16.061  0.2059E-01  0.5112E+00
     16.153  0.2269E-01  0.5133E+00
     16.245  0.2697E-01  0.5158E+00
     16.337  0.2774E-01  0.5184E+00
     16.429  0.2041E-01  0.5202E+00
     16.521  0.1252E-01  0.5214E+00
     16.613  0.1215E-01  0.5225E+00
     16.705  0.1712E-01  0.5241E+00
     16.797  0.2203E-01  0.5261E+00
     16.889  0.2443E-01  0.5284E+00
     16.981  0.2274E-01  0.5304E+00
     17.073  0.1635E-01  0.5319E+00
     17.165  0.9348E-02  0.5328E+00
     17.257  0.6798E-02  0.5334E+00
     17.349  0.8696E-02  0.5342E+00
     17.441  0.1339E-01  0.5355E+00
     17.533  0.2010E-01  0.5373E+00
     17.625  0.2513E-01  0.5396E+00
     17.717  0.2469E-01  0.5419E+00
     17.809  0.1992E-01  0.5437E+00
     17.901  0.1512E-01  0.5451E+00
     17.993  0.1370E-01  0.5464E+00
     18.085  0.1558E-01  0.5478E+00
     18.178  0.1737E-01  0.5494E+00
     18.270  0.1606E-01  0.5509E+00
     18.362  0.1312E-01  0.5521E+00
     18.454  0.1080E-01  0.5531E+00
     18.546  0.8969E-02  0.5539E+00
     18.638  0.1033E-01  0.5549E+00
     18.730  0.1785E-01  0.5565E+00
     18.822  0.2470E-01  0.5588E+00
     18.914  0.2225E-01  0.5608E+00
     19.006  0.1427E-01  0.5622E+00
     19.098  0.9281E-02  0.5630E+00
     19.190  0.1003E-01  0.5639E+00
     19.282  0.1538E-01  0.5654E+00
     19.374  0.2017E-01  0.5672E+00
     19.466  0.1987E-01  0.5690E+00
     19.558  0.1808E-01  0.5707E+00
     19.650  0.1734E-01  0.5723E+00
     19.742  0.1486E-01  0.5737E+00
     19.834  0.1118E-01  0.5747E+00
     19.926  0.7775E-02  0.5754E+00
     20.018  0.4948E-02  0.5759E+00
     20.110  0.4524E-02  0.5763E+00
     20.202  0.5630E-02  0.5768E+00
     20.295  0.6623E-02  0.5774E+00
     20.387  0.1056E-01  0.5784E+00
     20.479  0.1740E-01  0.5800E+00
     20.571  0.1883E-01  0.5817E+00
     20.663  0.1195E-01  0.5828E+00
     20.755  0.6354E-02  0.5834E+00
     20.847  0.9194E-02  0.5842E+00
     20.939  0.1600E-01  0.5857E+00
     21.031  0.1963E-01  0.5875E+00
     21.123  0.1898E-01  0.5893E+00
     21.215  0.1691E-01  0.5908E+00
     21.307  0.1422E-01  0.5921E+00
     21.399  0.1012E-01  0.5931E+00
     21.491  0.6099E-02  0.5936E+00
     21.583  0.3729E-02  0.5940E+00
     21.675  0.2150E-02  0.5942E+00
     21.767  0.1365E-02  0.5943E+00
     21.859  0.2832E-02  0.5946E+00
     21.951  0.5457E-02  0.5951E+00
     22.043  0.6661E-02  0.5957E+00
     22.135  0.6895E-02  0.5963E+00
     22.227  0.7439E-02  0.5970E+00
     22.319  0.6751E-02  0.5976E+00
     22.412  0.4595E-02  0.5980E+00
     22.504  0.3244E-02  0.5983E+00
     22.596  0.2861E-02  0.5986E+00
     22.688  0.2812E-02  0.5989E+00
     22.780  0.3409E-02  0.5992E+00
     22.872  0.3624E-02  0.5995E+00
     22.964  0.2577E-02  0.5997E+00
     23.056  0.1430E-02  0.5999E+00
     23.148  0.9042E-03  0.6000E+00
     23.240  0.4828E-03  0.6000E+00
     23.332  0.8648E-04  0.6000E+00
     23.424 -0.5685E-04  0.6000E+00
     23.516 -0.3896E-04  0.6000E+00
     23.608 -0.1059E-04  0.6000E+00
     23.700 -0.1592E-05  0.6000E+00
     23.792 -0.1439E-06  0.6000E+00
     23.884 -0.8102E-08  0.6000E+00
     23.976 -0.2888E-09  0.6000E+00
     24.068 -0.6588E-11  0.6000E+00
     24.160 -0.9674E-13  0.6000E+00
     24.252 -0.9178E-15  0.6000E+00
     24.344 -0.5654E-17  0.6000E+00
     24.436  0.0000E+00  0.6000E+00
     24.529  0.0000E+00  0.6000E+00
     24.621  0.0000E+00  0.6000E+00
     24.713  0.0000E+00  0.6000E+00
     24.805  0.0000E+00  0.6000E+00
     24.897  0.0000E+00  0.6000E+00
     24.989  0.0000E+00  0.6000E+00
     25.081  0.0000E+00  0.6000E+00
