    1    1   30    1
  0.2154672E+02  0.3123432E-09  0.3123432E-09  0.3123432E-09  0.5000000E-15
  1.000000000000000E-004
  CAR 
 unknown system                          
     11     60      9
 
  0.6250000E-01  0.6250000E-01  0.6250000E-01  0.3906250E-02
    1       -0.532328
    2        1.467594
    3        1.507136
    4        1.507136
    5        2.154590
    6        2.154590
    7       20.814303
    8       22.158589
    9       23.080786
 
  0.1875000E+00  0.6250000E-01  0.6250000E-01  0.1171875E-01
    1       -0.028537
    2        1.389815
    3        1.604707
    4        1.628032
    5        2.073814
    6        2.218054
    7       18.859759
    8       20.478736
    9       22.505555
 
  0.3125000E+00  0.6250000E-01  0.6250000E-01  0.1171875E-01
    1        0.588731
    2        1.579408
    3        1.644169
    4        1.878762
    5        2.193326
    6        2.589550
    7       14.396877
    8       19.872234
    9       21.914818
 
  0.4375000E+00  0.6250000E-01  0.6250000E-01  0.1171875E-01
    1        0.534641
    2        1.497511
    3        1.544651
    4        2.490479
    5        2.520742
    6        4.318319
    7       10.290432
    8       19.580008
    9       20.830706
 
 -0.4375000E+00  0.6250000E-01  0.6250000E-01  0.1171875E-01
    1        0.486436
    2        1.451076
    3        1.517386
    4        2.553136
    5        2.691442
    6        5.847915
    7        8.241351
    8       19.853470
    9       20.566485
 
 -0.3125000E+00  0.6250000E-01  0.6250000E-01  0.1171875E-01
    1        0.567049
    2        1.520436
    3        1.591254
    4        2.242370
    5        2.569475
    6        3.535381
    7       11.582133
    8       20.402799
    9       20.534820
 
 -0.1875000E+00  0.6250000E-01  0.6250000E-01  0.1171875E-01
    1        0.475382
    2        1.496578
    3        1.665955
    4        1.672981
    5        2.220351
    6        2.308436
    7       15.872857
    8       21.000414
    9       21.128017
 
 -0.6250000E-01  0.6250000E-01  0.6250000E-01  0.1171875E-01
    1       -0.269842
    2        1.398769
    3        1.580066
    4        1.580761
    5        2.085023
    6        2.196203
    7       20.200644
    8       21.361231
    9       22.027855
 
  0.1875000E+00  0.1875000E+00  0.6250000E-01  0.1171875E-01
    1        0.210486
    2        1.260432
    3        1.713429
    4        1.722791
    5        2.022186
    6        2.273763
    7       19.075610
    8       20.546762
    9       20.899334
 
  0.3125000E+00  0.1875000E+00  0.6250000E-01  0.2343750E-01
    1        0.824049
    2        1.177797
    3        1.644120
    4        1.897196
    5        2.259501
    6        2.677771
    7       16.268991
    8       18.095581
    9       20.949287
 
  0.4375000E+00  0.1875000E+00  0.6250000E-01  0.2343750E-01
    1        0.790544
    2        1.421782
    3        1.681504
    4        1.869671
    5        2.582657
    6        4.317975
    7       11.999609
    8       17.706826
    9       18.883717
 
 -0.4375000E+00  0.1875000E+00  0.6250000E-01  0.2343750E-01
    1        0.730801
    2        1.321199
    3        1.735539
    4        2.075429
    5        2.667741
    6        6.818008
    7        8.502572
    8       17.344283
    9       18.165800
 
 -0.3125000E+00  0.1875000E+00  0.6250000E-01  0.2343750E-01
    1        0.805770
    2        1.373776
    3        1.737302
    4        1.981801
    5        2.490569
    6        5.148698
    7       10.731527
    8       16.640343
    9       19.415543
 
 -0.1875000E+00  0.1875000E+00  0.6250000E-01  0.2343750E-01
    1        0.949653
    2        1.328344
    3        1.588945
    4        1.886079
    5        2.132802
    6        3.221871
    7       14.827335
    8       16.759423
    9       21.265801
 
 -0.6250000E-01  0.1875000E+00  0.6250000E-01  0.2343750E-01
    1        0.399871
    2        1.301530
    3        1.683432
    4        1.719623
    5        2.058720
    6        2.357130
    7       17.516161
    8       19.302693
    9       22.243068
 
  0.3125000E+00  0.3125000E+00  0.6250000E-01  0.1171875E-01
    1        0.836027
    2        0.906370
    3        2.072740
    4        2.152668
    5        2.492074
    6        2.993539
    7       16.643304
    8       17.642171
    9       18.207718
 
  0.4375000E+00  0.3125000E+00  0.6250000E-01  0.2343750E-01
    1        0.771347
    2        0.883139
    3        2.010971
    4        2.352226
    5        2.609353
    6        4.697234
    7       14.165134
    8       15.674228
    9       16.118222
 
 -0.4375000E+00  0.3125000E+00  0.6250000E-01  0.2343750E-01
    1        0.789783
    2        1.104887
    3        1.836059
    4        2.187375
    5        2.702281
    6        7.300425
    7       10.461324
    8       13.931665
    9       16.298295
 
 -0.3125000E+00  0.3125000E+00  0.6250000E-01  0.2343750E-01
    1        0.985795
    2        1.338003
    3        1.581388
    4        2.072385
    5        2.499787
    6        7.379622
    7       10.604538
    8       12.799558
    9       17.526306
 
 -0.1875000E+00  0.3125000E+00  0.6250000E-01  0.2343750E-01
    1        1.090190
    2        1.316948
    3        1.572400
    4        1.995306
    5        2.285315
    6        4.997306
    7       12.511857
    8       14.505306
    9       19.322701
 
 -0.6250000E-01  0.3125000E+00  0.6250000E-01  0.2343750E-01
    1        0.704696
    2        1.529056
    3        1.681451
    4        1.855998
    5        2.396544
    6        3.251426
    7       13.102941
    8       18.742513
    9       21.062015
 
  0.4375000E+00  0.4375000E+00  0.6250000E-01  0.1171875E-01
    1        0.558818
    2        0.604552
    3        2.550587
    4        2.599327
    5        2.720165
    6        5.758401
    7       13.002389
    8       14.943232
    9       15.678170
 
 -0.4375000E+00  0.4375000E+00  0.6250000E-01  0.2343750E-01
    1        0.571166
    2        0.656811
    3        2.421925
    4        2.548811
    5        2.794041
    6        7.741386
    7       11.156980
    8       13.339775
    9       14.915926
 
 -0.3125000E+00  0.4375000E+00  0.6250000E-01  0.2343750E-01
    1        0.752739
    2        1.035365
    3        1.929610
    4        2.292179
    5        2.686316
    6        8.987298
    7       10.101182
    8       11.861942
    9       15.983865
 
 -0.1875000E+00  0.4375000E+00  0.6250000E-01  0.2343750E-01
    1        0.895779
    2        1.259728
    3        1.825961
    4        1.911882
    5        2.602636
    6        7.548875
    7        8.874567
    8       15.005814
    9       17.739317
 
 -0.6250000E-01  0.4375000E+00  0.6250000E-01  0.2343750E-01
    1        0.595696
    2        1.418285
    3        1.603266
    4        2.309922
    5        2.644130
    6        5.463383
    7        9.243543
    8       18.783854
    9       19.621377
 
 -0.4375000E+00 -0.4375000E+00  0.6250000E-01  0.1171875E-01
    1        0.470711
    2        0.535291
    3        2.629559
    4        2.731940
    5        2.801321
    6        7.230882
    7       11.076971
    8       14.530125
    9       15.247244
 
 -0.3125000E+00 -0.4375000E+00  0.6250000E-01  0.2343750E-01
    1        0.649860
    2        0.731607
    3        2.247879
    4        2.517560
    5        2.713997
    6        6.219813
    7       12.952024
    8       13.875082
    9       15.302088
 
 -0.1875000E+00 -0.4375000E+00  0.6250000E-01  0.2343750E-01
    1        0.817053
    2        1.247997
    3        1.724414
    4        2.025342
    5        2.679557
    6        5.689753
    7       11.106422
    8       16.303937
    9       16.931917
 
 -0.3125000E+00 -0.3125000E+00  0.6250000E-01  0.1171875E-01
    1        0.701846
    2        0.739998
    3        2.365227
    4        2.380186
    5        2.608501
    6        4.234432
    7       15.327793
    8       15.830158
    9       16.498911
 
 -0.1875000E+00 -0.3125000E+00  0.6250000E-01  0.2343750E-01
    1        0.892061
    2        1.059683
    3        1.757706
    4        2.120299
    5        2.469260
    6        3.461012
    7       15.147691
    8       16.939428
    9       18.392123
 
 -0.1875000E+00 -0.1875000E+00  0.6250000E-01  0.1171875E-01
    1        0.713664
    2        1.084769
    3        1.819650
    4        1.920963
    5        2.249048
    6        2.376853
    7       17.838579
    8       19.026133
    9       20.474828
 
  0.1875000E+00  0.1875000E+00  0.1875000E+00  0.3906250E-02
    1        0.165285
    2        1.475494
    3        1.617046
    4        1.617046
    5        2.163935
    6        2.163935
    7       17.300508
    8       21.425220
    9       22.706954
 
  0.3125000E+00  0.1875000E+00  0.1875000E+00  0.1171875E-01
    1        0.699924
    2        1.331670
    3        1.699465
    4        1.760568
    5        1.999770
    6        2.664203
    7       16.090037
    8       17.974417
    9       22.823374
 
  0.4375000E+00  0.1875000E+00  0.1875000E+00  0.1171875E-01
    1        1.030313
    2        1.359596
    3        1.711630
    4        1.848750
    5        2.113178
    6        3.973504
    7       13.571936
    8       15.541292
    9       21.569942
 
 -0.4375000E+00  0.1875000E+00  0.1875000E+00  0.1171875E-01
    1        0.836852
    2        1.331876
    3        1.781453
    4        1.986368
    5        2.505886
    6        6.229724
    7        9.682774
    8       15.717382
    9       19.782476
 
 -0.3125000E+00  0.1875000E+00  0.1875000E+00  0.1171875E-01
    1        0.753583
    2        1.322078
    3        1.820426
    4        1.906596
    5        2.711137
    6        6.198392
    7        9.615145
    8       16.756686
    9       18.486450
 
 -0.1875000E+00  0.1875000E+00  0.1875000E+00  0.1171875E-01
    1        0.808969
    2        1.289015
    3        1.699816
    4        1.916888
    5        2.610080
    6        3.740826
    7       13.481526
    8       18.272733
    9       18.547819
 
  0.3125000E+00  0.3125000E+00  0.1875000E+00  0.1171875E-01
    1        0.735872
    2        1.472114
    3        1.594565
    4        1.766191
    5        2.467847
    6        2.759032
    7       14.595687
    8       19.605283
    9       20.467978
 
  0.4375000E+00  0.3125000E+00  0.1875000E+00  0.2343750E-01
    1        1.001986
    2        1.310444
    3        1.469864
    4        2.085739
    5        2.356909
    6        4.141172
    7       13.739980
    8       15.684895
    9       18.758095
 
 -0.4375000E+00  0.3125000E+00  0.1875000E+00  0.2343750E-01
    1        1.139106
    2        1.199132
    3        1.465509
    4        2.143285
    5        2.489235
    6        6.310242
    7       11.654872
    8       13.681774
    9       16.836407
 
 -0.3125000E+00  0.3125000E+00  0.1875000E+00  0.2343750E-01
    1        0.983244
    2        1.175319
    3        1.640667
    4        2.084385
    5        2.660418
    6        8.164206
    7        9.256822
    8       14.432105
    9       15.558629
 
 -0.1875000E+00  0.3125000E+00  0.1875000E+00  0.2343750E-01
    1        0.928233
    2        1.101499
    3        1.637678
    4        2.281424
    5        2.534136
    6        5.417485
    7       12.843921
    8       14.764772
    9       16.271785
 
  0.4375000E+00  0.4375000E+00  0.1875000E+00  0.1171875E-01
    1        0.754682
    2        1.066299
    3        1.929891
    4        2.101724
    5        2.707781
    6        5.056363
    7       12.554670
    8       15.979428
    9       17.204326
 
 -0.4375000E+00  0.4375000E+00  0.1875000E+00  0.2343750E-01
    1        0.830431
    2        0.942959
    3        1.837140
    4        2.378623
    5        2.686509
    6        6.966529
    7       12.141805
    8       13.580363
    9       14.495797
 
 -0.3125000E+00  0.4375000E+00  0.1875000E+00  0.2343750E-01
    1        0.941452
    2        1.161993
    3        1.546564
    4        2.216239
    5        2.791029
    6        9.593567
    7       10.665959
    8       11.938749
    9       13.281890
 
 -0.1875000E+00  0.4375000E+00  0.1875000E+00  0.2343750E-01
    1        1.035471
    2        1.166790
    3        1.488942
    4        2.211245
    5        2.673625
    6        7.880642
    7       11.030015
    8       13.028450
    9       14.560425
 
 -0.4375000E+00 -0.4375000E+00  0.1875000E+00  0.1171875E-01
    1        0.614256
    2        0.814232
    3        2.273745
    4        2.430385
    5        2.727879
    6        8.201314
    7       11.054672
    8       12.014505
    9       16.069549
 
 -0.3125000E+00 -0.4375000E+00  0.1875000E+00  0.2343750E-01
    1        0.755221
    2        0.874413
    3        1.988793
    4        2.373846
    5        2.791633
    6        8.587275
    7       11.238169
    8       12.234981
    9       14.033206
 
 -0.3125000E+00 -0.3125000E+00  0.1875000E+00  0.1171875E-01
    1        0.672019
    2        0.898567
    3        2.145173
    4        2.289810
    5        2.743811
    6        6.618223
    7       11.834201
    8       13.608089
    9       16.455779
 
  0.3125000E+00  0.3125000E+00  0.3125000E+00  0.3906250E-02
    1        0.538958
    2        1.581516
    3        1.581516
    4        2.397299
    5        2.397299
    6        2.605674
    7       12.888106
    8       20.840697
    9       21.915711
 
  0.4375000E+00  0.3125000E+00  0.3125000E+00  0.1171875E-01
    1        0.731530
    2        1.472059
    3        1.671974
    4        2.084439
    5        2.328145
    6        4.048867
    7       11.812761
    8       17.609015
    9       21.209733
 
 -0.4375000E+00  0.3125000E+00  0.3125000E+00  0.1171875E-01
    1        1.038805
    2        1.358889
    3        1.660670
    4        1.952504
    5        2.347055
    6        6.066811
    7       11.467046
    8       13.527597
    9       19.610708
 
 -0.3125000E+00  0.3125000E+00  0.3125000E+00  0.1171875E-01
    1        0.828945
    2        1.240116
    3        1.774700
    4        2.164576
    5        2.568201
    6        8.649071
    7        9.695788
    8       12.187855
    9       17.581229
 
  0.4375000E+00  0.4375000E+00  0.3125000E+00  0.1171875E-01
    1        0.651793
    2        1.426886
    3        1.674905
    4        2.055706
    5        2.680632
    6        4.745923
    7       10.486328
    8       19.154305
    9       19.377680
 
 -0.4375000E+00  0.4375000E+00  0.3125000E+00  0.2343750E-01
    1        0.910003
    2        1.247035
    3        1.744805
    4        1.960491
    5        2.610809
    6        6.532344
    7        9.870155
    8       15.840260
    9       17.038251
 
 -0.3125000E+00  0.4375000E+00  0.3125000E+00  0.2343750E-01
    1        0.960705
    2        1.224154
    3        1.558044
    4        2.171914
    5        2.672416
    6        8.928150
    7        9.963920
    8       12.317339
    9       15.239427
 
 -0.4375000E+00 -0.4375000E+00  0.3125000E+00  0.1171875E-01
    1        0.818523
    2        1.253473
    3        1.814737
    4        2.002630
    5        2.660521
    6        7.865122
    7        9.004094
    8       14.361873
    9       17.884110
 
  0.4375000E+00  0.4375000E+00  0.4375000E+00  0.3906250E-02
    1        0.453449
    2        1.490865
    3        1.490866
    4        2.650177
    5        2.650177
    6        4.952659
    7        9.058939
    8       20.234881
    9       21.178813
 
 -0.4375000E+00  0.4375000E+00  0.4375000E+00  0.1171875E-01
    1        0.623060
    2        1.387841
    3        1.620360
    4        2.306751
    5        2.638221
    6        6.373842
    7        8.371714
    8       17.971496
    9       20.123406
