       N       E                     dE             d eps       ncg     rms          rms(c)
DAV:   1     0.291289138231E+02    0.29129E+02   -0.44673E+03  1256   0.756E+02
DAV:   2    -0.251860632536E+01   -0.31648E+02   -0.30062E+02  1103   0.157E+02
DAV:   3    -0.274930036332E+01   -0.23069E+00   -0.23062E+00  1291   0.163E+01
DAV:   4    -0.274981933520E+01   -0.51897E-03   -0.51897E-03  1260   0.726E-01
DAV:   5    -0.274982351264E+01   -0.41774E-05   -0.41773E-05  1098   0.609E-02    0.295E+00
DAV:   6    -0.258227288872E+01    0.16755E+00   -0.93418E-01  1119   0.100E+01    0.216E+00
DAV:   7    -0.258009855338E+01    0.21743E-02   -0.22325E-03  1170   0.509E-01    0.127E+00
DAV:   8    -0.257906699865E+01    0.10316E-02   -0.75403E-04  1146   0.314E-01    0.326E-02
DAV:   9    -0.257908756143E+01   -0.20563E-04   -0.12855E-05   568   0.383E-02
   1 F= -.25790876E+01 E0= -.25791470E+01  d E =-.257909E+01
