 vasp.5.3.5 31Mar14 (build Jan 09 2015 16:57:47) complex                        
  
 executed on             LinuxIFC date 2015.03.24  14:26:01
 serial version


--------------------------------------------------------------------------------------------------------


 INCAR:
 POTCAR:    PAW_PBE Ag 02Apr2005                  
 POTCAR:    PAW_PBE Ag 02Apr2005                  
   VRHFIN =Ag : s1 d10                                                          
   LEXCH  = PE                                                                  
   EATOM  =  1037.2675 eV,   76.2370 Ry                                         
                                                                                
   TITEL  = PAW_PBE Ag 02Apr2005                                                
   LULTRA =        F    use ultrasoft PP ?                                      
   IUNSCR =        1    unscreen: 0-lin 1-nonlin 2-no                           
   RPACOR =    2.000    partial core radius                                     
   POMASS =  107.868; ZVAL   =   11.000    mass and valenz                      
   RCORE  =    2.500    outmost cutoff radius                                   
   RWIGS  =    2.840; RWIGS  =    1.503    wigner-seitz radius (au A)           
   ENMAX  =  249.844; ENMIN  =  187.383 eV                                      
   ICORE  =        3    local potential                                         
   LCOR   =        T    correct aug charges                                     
   LPAW   =        T    paw PP                                                  
   EAUG   =  412.496                                                            
   DEXC   =    0.000                                                            
   RMAX   =    2.560    core radius for proj-oper                               
   RAUG   =    1.300    factor for augmentation sphere                          
   RDEP   =    2.576    radius for radial grids                                 
   RDEPT  =    2.072    core radius for aug-charge                              
                                                                                
   Atomic configuration                                                         
   12 entries                                                                   
     n  l   j            E        occ.                                          
     1  0  0.50    -25324.9161   2.0000                                         
     2  0  0.50     -3728.5341   2.0000                                         
     2  1  1.50     -3344.0404   6.0000                                         
     3  0  0.50      -683.5581   2.0000                                         
     3  1  1.50      -557.3225   6.0000                                         
     3  2  2.50      -358.3853  10.0000                                         
     4  0  0.50       -95.0341   2.0000                                         
     4  1  1.50       -58.5511   6.0000                                         
     4  2  2.50        -7.4440  10.0000                                         
     5  0  0.50        -4.4045   1.0000                                         
     5  1  0.50        -1.3606   0.0000                                         
     4  3  2.50        -1.3606   0.0000                                         
   Description                                                                  
     l       E           TYP  RCUT    TYP  RCUT                                 
     2     -7.4439781     23  2.400                                             
     2     -8.8045607     23  2.400                                             
     0     -4.4044681     23  2.400                                             
     0      1.9520038     23  2.400                                             
     1     -1.3605826     23  2.500                                             
     1     27.2116520     23  2.500                                             
     3     -4.0817478     23  2.400                                             
  local pseudopotential read in
  partial core-charges read in
  partial kinetic energy density read in
  atomic valenz-charges read in
  non local Contribution for L=           2  read in
    real space projection operators read in
  non local Contribution for L=           2  read in
    real space projection operators read in
  non local Contribution for L=           0  read in
    real space projection operators read in
  non local Contribution for L=           0  read in
    real space projection operators read in
  non local Contribution for L=           1  read in
    real space projection operators read in
  non local Contribution for L=           1  read in
    real space projection operators read in
    PAW grid and wavefunctions read in
 
   number of l-projection  operators is LMAX  =           6
   number of lm-projection operators is LMMAX =          18
 
  PAW_PBE Ag 02Apr2005                  :
 energy of atom  1       EATOM=-1037.2675
 kinetic energy error for atom=    0.0272 (will be added to EATOM!!)
 
 
 POSCAR: Ag                                      
  positions in cartesian coordinates
  No initial velocities read in
 exchange correlation table for  LEXCH =        8
   RHO(1)=    0.500       N(1)  =     2000
   RHO(2)=  100.500       N(2)  =     4000

 VTST: version 3.1, (03/28/14)

 CHAIN: initializing optimizer
 
 OPT: Using VASP Conjugate-Gradient optimizer
 CHAIN: Read ICHAIN            0
 
 POSCAR: Ag                                      
  positions in cartesian coordinates
  No initial velocities read in
 


--------------------------------------------------------------------------------------------------------


 ion  position               nearest neighbor table
   1  0.000  0.000  0.000-
 
  LATTYP: Found a face centered cubic cell.
 ALAT       =     4.4172000000
  
  Lattice vectors:
  
 A1 = (   3.1234320739,   0.0000000000,   0.0000000000)
 A2 = (   1.5617160369,   2.7049715230,   0.0000000000)
 A3 = (   1.5617160369,   0.9016571743,   2.5502716091)


Analysis of symmetry for initial positions (statically):
=====================================================================
 Subroutine PRICEL returns:
 Original cell was already a primitive cell.
 

 Routine SETGRP: Setting up the symmetry group for a 
 face centered cubic supercell.


 Subroutine GETGRP returns: Found 48 space group operations
 (whereof 48 operations were pure point group operations)
 out of a pool of 48 trial point group operations.


The static configuration has the point symmetry O_h .


Analysis of symmetry for dynamics (positions and initial velocities):
=====================================================================
 Subroutine PRICEL returns:
 Original cell was already a primitive cell.
 

 Routine SETGRP: Setting up the symmetry group for a 
 face centered cubic supercell.


 Subroutine GETGRP returns: Found 48 space group operations
 (whereof 48 operations were pure point group operations)
 out of a pool of 48 trial point group operations.


The dynamic configuration has the point symmetry O_h .
 
 
 KPOINTS: KPOINTS created by Atomic Simulation Env

Automatic generation of k-mesh.
Space group operators:
 irot       det(A)        alpha          n_x          n_y          n_z        tau_x        tau_y        tau_z
    1     1.000000     0.000000     1.000000     0.000000     0.000000     0.000000     0.000000     0.000000
    2    -1.000000     0.000000     1.000000     0.000000     0.000000     0.000000     0.000000     0.000000
    3     1.000000   120.000000    -0.816497    -0.471405    -0.333333     0.000000     0.000000     0.000000
    4    -1.000000   120.000000    -0.816497    -0.471405    -0.333333     0.000000     0.000000     0.000000
    5     1.000000   120.000000     0.816497     0.471405     0.333333     0.000000     0.000000     0.000000
    6    -1.000000   120.000000     0.816497     0.471405     0.333333     0.000000     0.000000     0.000000
    7     1.000000    90.000000    -0.707107    -0.408248     0.577350     0.000000     0.000000     0.000000
    8    -1.000000    90.000000    -0.707107    -0.408248     0.577350     0.000000     0.000000     0.000000
    9     1.000000   180.000000     1.000000     0.000000     0.000000     0.000000     0.000000     0.000000
   10    -1.000000   180.000000     1.000000     0.000000     0.000000     0.000000     0.000000     0.000000
   11     1.000000    90.000000     0.707107    -0.408248     0.577350     0.000000     0.000000     0.000000
   12    -1.000000    90.000000     0.707107    -0.408248     0.577350     0.000000     0.000000     0.000000
   13     1.000000   180.000000     0.707107     0.408248    -0.577350     0.000000     0.000000     0.000000
   14    -1.000000   180.000000     0.707107     0.408248    -0.577350     0.000000     0.000000     0.000000
   15     1.000000   120.000000     0.816497    -0.471405    -0.333333     0.000000     0.000000     0.000000
   16    -1.000000   120.000000     0.816497    -0.471405    -0.333333     0.000000     0.000000     0.000000
   17     1.000000   120.000000     0.000000    -0.942809     0.333333     0.000000     0.000000     0.000000
   18    -1.000000   120.000000     0.000000    -0.942809     0.333333     0.000000     0.000000     0.000000
   19     1.000000    90.000000     0.707107     0.408248    -0.577350     0.000000     0.000000     0.000000
   20    -1.000000    90.000000     0.707107     0.408248    -0.577350     0.000000     0.000000     0.000000
   21     1.000000    90.000000     0.000000    -0.816497    -0.577350     0.000000     0.000000     0.000000
   22    -1.000000    90.000000     0.000000    -0.816497    -0.577350     0.000000     0.000000     0.000000
   23     1.000000   180.000000     0.500000     0.866025     0.000000     0.000000     0.000000     0.000000
   24    -1.000000   180.000000     0.500000     0.866025     0.000000     0.000000     0.000000     0.000000
   25     1.000000   120.000000     0.000000     0.942809    -0.333333     0.000000     0.000000     0.000000
   26    -1.000000   120.000000     0.000000     0.942809    -0.333333     0.000000     0.000000     0.000000
   27     1.000000   120.000000     0.000000     0.000000    -1.000000     0.000000     0.000000     0.000000
   28    -1.000000   120.000000     0.000000     0.000000    -1.000000     0.000000     0.000000     0.000000
   29     1.000000   180.000000     0.000000    -0.816497    -0.577350     0.000000     0.000000     0.000000
   30    -1.000000   180.000000     0.000000    -0.816497    -0.577350     0.000000     0.000000     0.000000
   31     1.000000    90.000000    -0.707107     0.408248    -0.577350     0.000000     0.000000     0.000000
   32    -1.000000    90.000000    -0.707107     0.408248    -0.577350     0.000000     0.000000     0.000000
   33     1.000000   179.999999     0.500000     0.288675     0.816497     0.000000     0.000000     0.000000
   34    -1.000000   179.999999     0.500000     0.288675     0.816497     0.000000     0.000000     0.000000
   35     1.000000    90.000000     0.000000     0.816497     0.577350     0.000000     0.000000     0.000000
   36    -1.000000    90.000000     0.000000     0.816497     0.577350     0.000000     0.000000     0.000000
   37     1.000000   120.000000    -0.816497     0.471405     0.333333     0.000000     0.000000     0.000000
   38    -1.000000   120.000000    -0.816497     0.471405     0.333333     0.000000     0.000000     0.000000
   39     1.000000   179.999999     0.707107    -0.408248     0.577350     0.000000     0.000000     0.000000
   40    -1.000000   179.999999     0.707107    -0.408248     0.577350     0.000000     0.000000     0.000000
   41     1.000000   120.000000     0.000000     0.000000     1.000000     0.000000     0.000000     0.000000
   42    -1.000000   120.000000     0.000000     0.000000     1.000000     0.000000     0.000000     0.000000
   43     1.000000   180.000000     0.000000    -0.577350     0.816497     0.000000     0.000000     0.000000
   44    -1.000000   180.000000     0.000000    -0.577350     0.816497     0.000000     0.000000     0.000000
   45     1.000000   180.000000    -0.500000     0.866025     0.000000     0.000000     0.000000     0.000000
   46    -1.000000   180.000000    -0.500000     0.866025     0.000000     0.000000     0.000000     0.000000
   47     1.000000   179.999999    -0.500000     0.288675     0.816497     0.000000     0.000000     0.000000
   48    -1.000000   179.999999    -0.500000     0.288675     0.816497     0.000000     0.000000     0.000000
 
 Subroutine IBZKPT returns following result:
 ===========================================
 
 Found     60 irreducible k-points:
 
 Following reciprocal coordinates:
            Coordinates               Weight
  0.062500  0.062500  0.062500     96.000000
  0.187500  0.062500  0.062500    288.000000
  0.312500  0.062500  0.062500    288.000000
  0.437500  0.062500  0.062500    288.000000
 -0.437500  0.062500  0.062500    288.000000
 -0.312500  0.062500  0.062500    288.000000
 -0.187500  0.062500  0.062500    288.000000
 -0.062500  0.062500  0.062500    288.000000
  0.187500  0.187500  0.062500    288.000000
  0.312500  0.187500  0.062500    576.000000
  0.437500  0.187500  0.062500    576.000000
 -0.437500  0.187500  0.062500    576.000000
 -0.312500  0.187500  0.062500    576.000000
 -0.187500  0.187500  0.062500    576.000000
 -0.062500  0.187500  0.062500    576.000000
  0.312500  0.312500  0.062500    288.000000
  0.437500  0.312500  0.062500    576.000000
 -0.437500  0.312500  0.062500    576.000000
 -0.312500  0.312500  0.062500    576.000000
 -0.187500  0.312500  0.062500    576.000000
 -0.062500  0.312500  0.062500    576.000000
  0.437500  0.437500  0.062500    288.000000
 -0.437500  0.437500  0.062500    576.000000
 -0.312500  0.437500  0.062500    576.000000
 -0.187500  0.437500  0.062500    576.000000
 -0.062500  0.437500  0.062500    576.000000
 -0.437500 -0.437500  0.062500    288.000000
 -0.312500 -0.437500  0.062500    576.000000
 -0.187500 -0.437500  0.062500    576.000000
 -0.312500 -0.312500  0.062500    288.000000
 -0.187500 -0.312500  0.062500    576.000000
 -0.187500 -0.187500  0.062500    288.000000
  0.187500  0.187500  0.187500     96.000000
  0.312500  0.187500  0.187500    288.000000
  0.437500  0.187500  0.187500    288.000000
 -0.437500  0.187500  0.187500    288.000000
 -0.312500  0.187500  0.187500    288.000000
 -0.187500  0.187500  0.187500    288.000000
  0.312500  0.312500  0.187500    288.000000
  0.437500  0.312500  0.187500    576.000000
 -0.437500  0.312500  0.187500    576.000000
 -0.312500  0.312500  0.187500    576.000000
 -0.187500  0.312500  0.187500    576.000000
  0.437500  0.437500  0.187500    288.000000
 -0.437500  0.437500  0.187500    576.000000
 -0.312500  0.437500  0.187500    576.000000
 -0.187500  0.437500  0.187500    576.000000
 -0.437500 -0.437500  0.187500    288.000000
 -0.312500 -0.437500  0.187500    576.000000
 -0.312500 -0.312500  0.187500    288.000000
  0.312500  0.312500  0.312500     96.000000
  0.437500  0.312500  0.312500    288.000000
 -0.437500  0.312500  0.312500    288.000000
 -0.312500  0.312500  0.312500    288.000000
  0.437500  0.437500  0.312500    288.000000
 -0.437500  0.437500  0.312500    576.000000
 -0.312500  0.437500  0.312500    576.000000
 -0.437500 -0.437500  0.312500    288.000000
  0.437500  0.437500  0.437500     96.000000
 -0.437500  0.437500  0.437500    288.000000
 
 Following cartesian coordinates:
            Coordinates               Weight
  0.020010  0.011553  0.008169     96.000000
  0.060030 -0.011553 -0.008169    288.000000
  0.100050 -0.034658 -0.024507    288.000000
  0.140070 -0.057764 -0.040845    288.000000
 -0.140070  0.103975  0.073522    288.000000
 -0.100050  0.080870  0.057183    288.000000
 -0.060030  0.057764  0.040845    288.000000
 -0.020010  0.034658  0.024507    288.000000
  0.060030  0.034658 -0.024507    288.000000
  0.100050  0.011553 -0.040845    576.000000
  0.140070 -0.011553 -0.057183    576.000000
 -0.140070  0.150186  0.057183    576.000000
 -0.100050  0.127081  0.040845    576.000000
 -0.060030  0.103975  0.024507    576.000000
 -0.020010  0.080870  0.008169    576.000000
  0.100050  0.057764 -0.057183    288.000000
  0.140070  0.034658 -0.073522    576.000000
 -0.140070  0.196398  0.040845    576.000000
 -0.100050  0.173292  0.024507    576.000000
 -0.060030  0.150186  0.008169    576.000000
 -0.020010  0.127081 -0.008169    576.000000
  0.140070  0.080870 -0.089860    288.000000
 -0.140070  0.242609  0.024507    576.000000
 -0.100050  0.219503  0.008169    576.000000
 -0.060030  0.196398 -0.008169    576.000000
 -0.020010  0.173292 -0.024507    576.000000
 -0.140070 -0.080870  0.138874    288.000000
 -0.100050 -0.103975  0.122536    576.000000
 -0.060030 -0.127081  0.106198    576.000000
 -0.100050 -0.057764  0.106198    288.000000
 -0.060030 -0.080870  0.089860    576.000000
 -0.060030 -0.034658  0.073522    288.000000
  0.060030  0.034658  0.024507     96.000000
  0.100050  0.011553  0.008169    288.000000
  0.140070 -0.011553 -0.008169    288.000000
 -0.140070  0.150186  0.106198    288.000000
 -0.100050  0.127081  0.089860    288.000000
 -0.060030  0.103975  0.073522    288.000000
  0.100050  0.057764 -0.008169    288.000000
  0.140070  0.034658 -0.024507    576.000000
 -0.140070  0.196398  0.089860    576.000000
 -0.100050  0.173292  0.073522    576.000000
 -0.060030  0.150186  0.057183    576.000000
  0.140070  0.080870 -0.040845    288.000000
 -0.140070  0.242609  0.073522    576.000000
 -0.100050  0.219503  0.057183    576.000000
 -0.060030  0.196398  0.040845    576.000000
 -0.140070 -0.080870  0.187888    288.000000
 -0.100050 -0.103975  0.171550    576.000000
 -0.100050 -0.057764  0.155212    288.000000
  0.100050  0.057764  0.040845     96.000000
  0.140070  0.034658  0.024507    288.000000
 -0.140070  0.196398  0.138874    288.000000
 -0.100050  0.173292  0.122536    288.000000
  0.140070  0.080870  0.008169    288.000000
 -0.140070  0.242609  0.122536    576.000000
 -0.100050  0.219503  0.106198    576.000000
 -0.140070 -0.080870  0.236903    288.000000
  0.140070  0.080870  0.057183     96.000000
 -0.140070  0.242609  0.171550    288.000000
 


--------------------------------------------------------------------------------------------------------




 Dimension of arrays:
   k-points           NKPTS =     60   k-points in BZ     NKDIM =     60   number of bands    NBANDS=      9
   number of dos      NEDOS =    301   number of ions     NIONS =      1
   non local maximal  LDIM  =      6   non local SUM 2l+1 LMDIM =     18
   total plane-waves  NPLWV =   2744
   max r-space proj   IRMAX =      1   max aug-charges    IRDMAX=   6460
   dimension x,y,z NGX =    14 NGY =   14 NGZ =   14
   dimension x,y,z NGXF=    28 NGYF=   28 NGZF=   28
   support grid    NGXF=    28 NGYF=   28 NGZF=   28
   ions per type =               1
 NGX,Y,Z   is equivalent  to a cutoff of   7.45,  7.45,  7.45 a.u.
 NGXF,Y,Z  is equivalent  to a cutoff of  14.90, 14.90, 14.90 a.u.


 I would recommend the setting:
   dimension x,y,z NGX =    14 NGY =   14 NGZ =   14
 SYSTEM =  unknown system                          
 POSCAR =  Ag                                      

 Startparameter for this run:
   NWRITE =      2    write-flag & timer
   PREC   = normal    normal or accurate (medium, high low for compatibility)
   ISTART =      0    job   : 0-new  1-cont  2-samecut
   ICHARG =      2    charge: 1-file 2-atom 10-const
   ISPIN  =      1    spin polarized calculation?
   LNONCOLLINEAR =      F non collinear calculations
   LSORBIT =      F    spin-orbit coupling
   INIWAV =      1    electr: 0-lowe 1-rand  2-diag
   LASPH  =      F    aspherical Exc in radial PAW
   METAGGA=      F    non-selfconsistent MetaGGA calc.

 Electronic Relaxation 1
   ENCUT  =  350.0 eV  25.72 Ry    5.07 a.u.   4.76  4.76  4.76*2*pi/ulx,y,z
   ENINI  =  350.0     initial cutoff
   ENAUG  =  412.5 eV  augmentation charge cutoff
   NELM   =     60;   NELMIN=  2; NELMDL= -5     # of ELM steps 
   EDIFF  = 0.1E-03   stopping-criterion for ELM
   LREAL  =      F    real-space projection
   NLSPLINE    = F    spline interpolate recip. space projectors
   LCOMPAT=      F    compatible to vasp.4.4
   GGA_COMPAT  = T    GGA compatible to vasp.4.4-vasp.4.6
   LMAXPAW     = -100 max onsite density
   LMAXMIX     =    2 max onsite mixed and CHGCAR
   VOSKOWN=      0    Vosko Wilk Nusair interpolation
   ROPT   =    0.00000
 Ionic relaxation
   EDIFFG = 0.1E-02   stopping-criterion for IOM
   NSW    =     30    number of steps for IOM
   NBLOCK =      1;   KBLOCK =     30    inner block; outer block 
   IBRION =      2    ionic relax: 0-MD 1-quasi-New 2-CG
   NFREE  =      1    steps in history (QN), initial steepest desc. (CG)
   ISIF   =      2    stress and relaxation
   IWAVPR =     11    prediction:  0-non 1-charg 2-wave 3-comb
   ISYM   =      2    0-nonsym 1-usesym 2-fastsym
   LCORR  =      T    Harris-Foulkes like correction to forces

   POTIM  = 0.5000    time-step for ionic-motion
   TEIN   =    0.0    initial temperature
   TEBEG  =    0.0;   TEEND  =   0.0 temperature during run
   SMASS  =  -3.00    Nose mass-parameter (am)
   estimated Nose-frequenzy (Omega)   =  0.10E-29 period in steps =****** mass=  -0.223E-27a.u.
   SCALEE = 1.0000    scale energy and forces
   NPACO  =    256;   APACO  = 16.0  distance and # of slots for P.C.
   PSTRESS=    0.0 pullay stress

  Mass of Ions in am
   POMASS = 107.87
  Ionic Valenz
   ZVAL   =  11.00
  Atomic Wigner-Seitz radii
   RWIGS  =  -1.00
  virtual crystal weights 
   VCA    =   1.00
   NELECT =      11.0000    total number of electrons
   NUPDOWN=      -1.0000    fix difference up-down

 DOS related values:
   EMIN   =  10.00;   EMAX   =-10.00  energy-range for DOS
   EFERMI =   0.00
   ISMEAR =     1;   SIGMA  =   0.20  broadening in eV -4-tet -1-fermi 0-gaus

 Electronic relaxation 2 (details)
   IALGO  =     38    algorithm
   LDIAG  =      T    sub-space diagonalisation (order eigenvalues)
   LSUBROT=      F    optimize rotation matrix (better conditioning)
   TURBO    =      0    0=normal 1=particle mesh
   IRESTART =      0    0=no restart 2=restart with 2 vectors
   NREBOOT  =      0    no. of reboots
   NMIN     =      0    reboot dimension
   EREF     =   0.00    reference energy to select bands
   IMIX   =      4    mixing-type and parameters
     AMIX     =   0.40;   BMIX     =  1.00
     AMIX_MAG =   1.60;   BMIX_MAG =  1.00
     AMIN     =   0.10
     WC   =   100.;   INIMIX=   1;  MIXPRE=   1;  MAXMIX= -45

 Intra band minimization:
   WEIMIN = 0.0010     energy-eigenvalue tresh-hold
   EBREAK =  0.28E-05  absolut break condition
   DEPER  =   0.30     relativ break condition  

   TIME   =   0.40     timestep for ELM

  volume/ion in A,a.u.               =      21.55       145.40
  Fermi-wavevector in a.u.,A,eV,Ry     =   1.308414  2.472545 23.292471  1.711948
  Thomas-Fermi vector in A             =   2.439083
 
 Write flags
   LWAVE  =      T    write WAVECAR
   LCHARG =      T    write CHGCAR
   LVTOT  =      F    write LOCPOT, total local potential
   LVHAR  =      F    write LOCPOT, Hartree potential only
   LELF   =      F    write electronic localiz. function (ELF)
   LORBIT =      0    0 simple, 1 ext, 2 COOP (PROOUT)


 Dipole corrections
   LMONO  =      F    monopole corrections only (constant potential shift)
   LDIPOL =      F    correct potential (dipole corrections)
   IDIPOL =      0    1-x, 2-y, 3-z, 4-all directions 
   EPSILON=  1.0000000 bulk dielectric constant

 Exchange correlation treatment:
   GGA     =    --    GGA type
   LEXCH   =     8    internal setting for exchange type
   VOSKOWN=      0    Vosko Wilk Nusair interpolation
   LHFCALC =     F    Hartree Fock is set to
   LHFONE  =     F    Hartree Fock one center treatment
   AEXX    =    0.0000 exact exchange contribution

 Linear response parameters
   LEPSILON=     F    determine dielectric tensor
   LRPA    =     F    only Hartree local field effects (RPA)
   LNABLA  =     F    use nabla operator in PAW spheres
   LVEL    =     F    velocity operator in full k-point grid
   LINTERFAST=   F  fast interpolation
   KINTER  =     0    interpolate to denser k-point grid
   CSHIFT  =0.1000    complex shift for real part using Kramers Kronig
   OMEGAMAX=  -1.0    maximum frequency
   DEG_THRESHOLD= 0.2000000E-02 threshold for treating states as degnerate
   RTIME   =    0.100 relaxation time in fs

 Orbital magnetization related:
   ORBITALMAG=     F  switch on orbital magnetization
   LCHIMAG   =     F  perturbation theory with respect to B field
   DQ        =  0.001000  dq finite difference perturbation B field



--------------------------------------------------------------------------------------------------------


 conjugate gradient relaxation of ions
 charge density and potential will be updated during run
 non-spin polarized calculation
 Variant of blocked Davidson
 Davidson routine will perform the subspace rotation
 perform sub-space diagonalisation
    after iterative eigenvector-optimisation
 modified Broyden-mixing scheme, WC =      100.0
 initial mixing is a Kerker type mixing with AMIX =  0.4000 and BMIX =      1.0000
 Hartree-type preconditioning will be used
 using additional bands            3
 reciprocal scheme for non local part
 use partial core corrections
 calculate Harris-corrections to forces 
   (improved forces if not selfconsistent)
 use gradient corrections 
 use of overlap-Matrix (Vanderbilt PP)
 Methfessel and Paxton  Order N= 1 SIGMA  =   0.20


--------------------------------------------------------------------------------------------------------


  energy-cutoff  :      350.00
  volume of cell :       21.55
      direct lattice vectors                 reciprocal lattice vectors
     3.123432074  0.000000000  0.000000000     0.320160636 -0.184844830 -0.130705032
     1.561716037  2.704971523  0.000000000     0.000000000  0.369689659 -0.130705032
     1.561716037  0.901657174  2.550271609     0.000000000  0.000000000  0.392115097

  length of vectors
     3.123432074  3.123432074  3.123432074     0.392115097  0.392115097  0.392115097


 
 k-points in units of 2pi/SCALE and weight: KPOINTS created by Atomic Simulation Env
   0.02001004  0.01155280  0.00816906       0.004
   0.06003012 -0.01155280 -0.00816906       0.012
   0.10005020 -0.03465841 -0.02450719       0.012
   0.14007028 -0.05776401 -0.04084532       0.012
  -0.14007028  0.10397522  0.07352158       0.012
  -0.10005020  0.08086961  0.05718345       0.012
  -0.06003012  0.05776401  0.04084532       0.012
  -0.02001004  0.03465841  0.02450719       0.012
   0.06003012  0.03465841 -0.02450719       0.012
   0.10005020  0.01155280 -0.04084532       0.023
   0.14007028 -0.01155280 -0.05718345       0.023
  -0.14007028  0.15018642  0.05718345       0.023
  -0.10005020  0.12708082  0.04084532       0.023
  -0.06003012  0.10397522  0.02450719       0.023
  -0.02001004  0.08086961  0.00816906       0.023
   0.10005020  0.05776401 -0.05718345       0.012
   0.14007028  0.03465841 -0.07352158       0.023
  -0.14007028  0.19639763  0.04084532       0.023
  -0.10005020  0.17329203  0.02450719       0.023
  -0.06003012  0.15018642  0.00816906       0.023
  -0.02001004  0.12708082 -0.00816906       0.023
   0.14007028  0.08086961 -0.08985971       0.012
  -0.14007028  0.24260884  0.02450719       0.023
  -0.10005020  0.21950324  0.00816906       0.023
  -0.06003012  0.19639763 -0.00816906       0.023
  -0.02001004  0.17329203 -0.02450719       0.023
  -0.14007028 -0.08086961  0.13887410       0.012
  -0.10005020 -0.10397522  0.12253597       0.023
  -0.06003012 -0.12708082  0.10619784       0.023
  -0.10005020 -0.05776401  0.10619784       0.012
  -0.06003012 -0.08086961  0.08985971       0.023
  -0.06003012 -0.03465841  0.07352158       0.012
   0.06003012  0.03465841  0.02450719       0.004
   0.10005020  0.01155280  0.00816906       0.012
   0.14007028 -0.01155280 -0.00816906       0.012
  -0.14007028  0.15018642  0.10619784       0.012
  -0.10005020  0.12708082  0.08985971       0.012
  -0.06003012  0.10397522  0.07352158       0.012
   0.10005020  0.05776401 -0.00816906       0.012
   0.14007028  0.03465841 -0.02450719       0.023
  -0.14007028  0.19639763  0.08985971       0.023
  -0.10005020  0.17329203  0.07352158       0.023
  -0.06003012  0.15018642  0.05718345       0.023
   0.14007028  0.08086961 -0.04084532       0.012
  -0.14007028  0.24260884  0.07352158       0.023
  -0.10005020  0.21950324  0.05718345       0.023
  -0.06003012  0.19639763  0.04084532       0.023
  -0.14007028 -0.08086961  0.18788848       0.012
  -0.10005020 -0.10397522  0.17155036       0.023
  -0.10005020 -0.05776401  0.15521223       0.012
   0.10005020  0.05776401  0.04084532       0.004
   0.14007028  0.03465841  0.02450719       0.012
  -0.14007028  0.19639763  0.13887410       0.012
  -0.10005020  0.17329203  0.12253597       0.012
   0.14007028  0.08086961  0.00816906       0.012
  -0.14007028  0.24260884  0.12253597       0.023
  -0.10005020  0.21950324  0.10619784       0.023
  -0.14007028 -0.08086961  0.23690287       0.012
   0.14007028  0.08086961  0.05718345       0.004
  -0.14007028  0.24260884  0.17155036       0.012
 
 k-points in reciprocal lattice and weights: KPOINTS created by Atomic Simulation Env
   0.06250000  0.06250000  0.06250000       0.004
   0.18750000  0.06250000  0.06250000       0.012
   0.31250000  0.06250000  0.06250000       0.012
   0.43750000  0.06250000  0.06250000       0.012
  -0.43750000  0.06250000  0.06250000       0.012
  -0.31250000  0.06250000  0.06250000       0.012
  -0.18750000  0.06250000  0.06250000       0.012
  -0.06250000  0.06250000  0.06250000       0.012
   0.18750000  0.18750000  0.06250000       0.012
   0.31250000  0.18750000  0.06250000       0.023
   0.43750000  0.18750000  0.06250000       0.023
  -0.43750000  0.18750000  0.06250000       0.023
  -0.31250000  0.18750000  0.06250000       0.023
  -0.18750000  0.18750000  0.06250000       0.023
  -0.06250000  0.18750000  0.06250000       0.023
   0.31250000  0.31250000  0.06250000       0.012
   0.43750000  0.31250000  0.06250000       0.023
  -0.43750000  0.31250000  0.06250000       0.023
  -0.31250000  0.31250000  0.06250000       0.023
  -0.18750000  0.31250000  0.06250000       0.023
  -0.06250000  0.31250000  0.06250000       0.023
   0.43750000  0.43750000  0.06250000       0.012
  -0.43750000  0.43750000  0.06250000       0.023
  -0.31250000  0.43750000  0.06250000       0.023
  -0.18750000  0.43750000  0.06250000       0.023
  -0.06250000  0.43750000  0.06250000       0.023
  -0.43750000 -0.43750000  0.06250000       0.012
  -0.31250000 -0.43750000  0.06250000       0.023
  -0.18750000 -0.43750000  0.06250000       0.023
  -0.31250000 -0.31250000  0.06250000       0.012
  -0.18750000 -0.31250000  0.06250000       0.023
  -0.18750000 -0.18750000  0.06250000       0.012
   0.18750000  0.18750000  0.18750000       0.004
   0.31250000  0.18750000  0.18750000       0.012
   0.43750000  0.18750000  0.18750000       0.012
  -0.43750000  0.18750000  0.18750000       0.012
  -0.31250000  0.18750000  0.18750000       0.012
  -0.18750000  0.18750000  0.18750000       0.012
   0.31250000  0.31250000  0.18750000       0.012
   0.43750000  0.31250000  0.18750000       0.023
  -0.43750000  0.31250000  0.18750000       0.023
  -0.31250000  0.31250000  0.18750000       0.023
  -0.18750000  0.31250000  0.18750000       0.023
   0.43750000  0.43750000  0.18750000       0.012
  -0.43750000  0.43750000  0.18750000       0.023
  -0.31250000  0.43750000  0.18750000       0.023
  -0.18750000  0.43750000  0.18750000       0.023
  -0.43750000 -0.43750000  0.18750000       0.012
  -0.31250000 -0.43750000  0.18750000       0.023
  -0.31250000 -0.31250000  0.18750000       0.012
   0.31250000  0.31250000  0.31250000       0.004
   0.43750000  0.31250000  0.31250000       0.012
  -0.43750000  0.31250000  0.31250000       0.012
  -0.31250000  0.31250000  0.31250000       0.012
   0.43750000  0.43750000  0.31250000       0.012
  -0.43750000  0.43750000  0.31250000       0.023
  -0.31250000  0.43750000  0.31250000       0.023
  -0.43750000 -0.43750000  0.31250000       0.012
   0.43750000  0.43750000  0.43750000       0.004
  -0.43750000  0.43750000  0.43750000       0.012
 
 position of ions in fractional coordinates (direct lattice) 
   0.00000000  0.00000000  0.00000000
 
 position of ions in cartesian coordinates  (Angst):
   0.00000000  0.00000000  0.00000000
 


--------------------------------------------------------------------------------------------------------


 k-point  1 :   0.0625 0.0625 0.0625  plane waves:     331
 k-point  2 :   0.1875 0.0625 0.0625  plane waves:     320
 k-point  3 :   0.3125 0.0625 0.0625  plane waves:     317
 k-point  4 :   0.4375 0.0625 0.0625  plane waves:     323
 k-point  5 :  -0.4375 0.0625 0.0625  plane waves:     325
 k-point  6 :  -0.3125 0.0625 0.0625  plane waves:     323
 k-point  7 :  -0.1875 0.0625 0.0625  plane waves:     315
 k-point  8 :  -0.0625 0.0625 0.0625  plane waves:     324
 k-point  9 :   0.1875 0.1875 0.0625  plane waves:     318
 k-point 10 :   0.3125 0.1875 0.0625  plane waves:     319
 k-point 11 :   0.4375 0.1875 0.0625  plane waves:     321
 k-point 12 :  -0.4375 0.1875 0.0625  plane waves:     320
 k-point 13 :  -0.3125 0.1875 0.0625  plane waves:     319
 k-point 14 :  -0.1875 0.1875 0.0625  plane waves:     317
 k-point 15 :  -0.0625 0.1875 0.0625  plane waves:     319
 k-point 16 :   0.3125 0.3125 0.0625  plane waves:     317
 k-point 17 :   0.4375 0.3125 0.0625  plane waves:     322
 k-point 18 :  -0.4375 0.3125 0.0625  plane waves:     320
 k-point 19 :  -0.3125 0.3125 0.0625  plane waves:     320
 k-point 20 :  -0.1875 0.3125 0.0625  plane waves:     320
 k-point 21 :  -0.0625 0.3125 0.0625  plane waves:     318
 k-point 22 :   0.4375 0.4375 0.0625  plane waves:     322
 k-point 23 :  -0.4375 0.4375 0.0625  plane waves:     319
 k-point 24 :  -0.3125 0.4375 0.0625  plane waves:     323
 k-point 25 :  -0.1875 0.4375 0.0625  plane waves:     318
 k-point 26 :  -0.0625 0.4375 0.0625  plane waves:     324
 k-point 27 :  -0.4375-0.4375 0.0625  plane waves:     324
 k-point 28 :  -0.3125-0.4375 0.0625  plane waves:     322
 k-point 29 :  -0.1875-0.4375 0.0625  plane waves:     322
 k-point 30 :  -0.3125-0.3125 0.0625  plane waves:     323
 k-point 31 :  -0.1875-0.3125 0.0625  plane waves:     321
 k-point 32 :  -0.1875-0.1875 0.0625  plane waves:     316
 k-point 33 :   0.1875 0.1875 0.1875  plane waves:     320
 k-point 34 :   0.3125 0.1875 0.1875  plane waves:     319
 k-point 35 :   0.4375 0.1875 0.1875  plane waves:     319
 k-point 36 :  -0.4375 0.1875 0.1875  plane waves:     324
 k-point 37 :  -0.3125 0.1875 0.1875  plane waves:     321
 k-point 38 :  -0.1875 0.1875 0.1875  plane waves:     322
 k-point 39 :   0.3125 0.3125 0.1875  plane waves:     322
 k-point 40 :   0.4375 0.3125 0.1875  plane waves:     318
 k-point 41 :  -0.4375 0.3125 0.1875  plane waves:     322
 k-point 42 :  -0.3125 0.3125 0.1875  plane waves:     318
 k-point 43 :  -0.1875 0.3125 0.1875  plane waves:     323
 k-point 44 :   0.4375 0.4375 0.1875  plane waves:     320
 k-point 45 :  -0.4375 0.4375 0.1875  plane waves:     320
 k-point 46 :  -0.3125 0.4375 0.1875  plane waves:     319
 k-point 47 :  -0.1875 0.4375 0.1875  plane waves:     321
 k-point 48 :  -0.4375-0.4375 0.1875  plane waves:     322
 k-point 49 :  -0.3125-0.4375 0.1875  plane waves:     321
 k-point 50 :  -0.3125-0.3125 0.1875  plane waves:     322
 k-point 51 :   0.3125 0.3125 0.3125  plane waves:     314
 k-point 52 :   0.4375 0.3125 0.3125  plane waves:     319
 k-point 53 :  -0.4375 0.3125 0.3125  plane waves:     324
 k-point 54 :  -0.3125 0.3125 0.3125  plane waves:     319
 k-point 55 :   0.4375 0.4375 0.3125  plane waves:     322
 k-point 56 :  -0.4375 0.4375 0.3125  plane waves:     321
 k-point 57 :  -0.3125 0.4375 0.3125  plane waves:     321
 k-point 58 :  -0.4375-0.4375 0.3125  plane waves:     318
 k-point 59 :   0.4375 0.4375 0.4375  plane waves:     323
 k-point 60 :  -0.4375 0.4375 0.4375  plane waves:     323

 maximum number of plane-waves:       331
 maximum index in each direction: 
   IXMAX=    5   IYMAX=    5   IZMAX=    4
   IXMIN=   -5   IYMIN=   -5   IZMIN=   -5

 WARNING: aliasing errors must be expected set NGX to  22 to avoid them
 WARNING: aliasing errors must be expected set NGY to  22 to avoid them
 WARNING: aliasing errors must be expected set NGZ to  20 to avoid them
 aliasing errors are usually negligible using standard VASP settings
 and one can safely disregard these warnings

 total amount of memory used by VASP on root node    37111. kBytes
========================================================================

   base      :      30000. kBytes
   nonl-proj :       2865. kBytes
   grid      :       1216. kBytes
   one-center:         15. kBytes
   wavefun   :       3015. kBytes
 
     INWAV:  cpu time    0.00: real time    0.00
 Broyden mixing: mesh for mixing (old mesh)
   NGX =  9   NGY =  9   NGZ =  9
  (NGX  = 28   NGY  = 28   NGZ  = 28)
  gives a total of    729 points

 initial charge density was supplied:
 charge density of overlapping atoms calculated
 number of electron      11.0000000 magnetization 
 keeping initial charge density in first step


--------------------------------------------------------------------------------------------------------


 Maximum index for augmentation-charges         6051 (set IRDMAX)


--------------------------------------------------------------------------------------------------------


 First call to EWALD:  gamma=   0.637
 Maximum number of real-space cells 3x 3x 3
 Maximum number of reciprocal cells 3x 3x 3

    FEWALD:  cpu time    0.00: real time    0.00


----------------------------------------- Iteration    1(   1)  ---------------------------------------


    POTLOK:  cpu time    0.03: real time    0.03
    SETDIJ:  cpu time    0.01: real time    0.03
     EDDAV:  cpu time    1.02: real time    1.02
       DOS:  cpu time    0.01: real time    0.01
    --------------------------------------------
      LOOP:  cpu time    1.06: real time    1.09

 eigenvalue-minimisations  :  1256
 total energy-change (2. order) : 0.2912891E+02  (-0.4467292E+03)
 number of electron      11.0000000 magnetization 
 augmentation part       11.0000000 magnetization 

 Free energy of the ion-electron system (eV)
  ---------------------------------------------------
  alpha Z        PSCENC =        39.47598558
  Ewald energy   TEWEN  =      -904.25446026
  -Hartree energ DENC   =      -239.37833877
  -exchange      EXHF   =         0.00000000
  -V(xc)+E(xc)   XCENC  =       -10.97217075
  PAW double counting   =      1003.46214933     -957.34927423
  entropy T*S    EENTRO =        -0.00067937
  eigenvalues    EBANDS =        60.90542419
  atomic energy  EATOM  =      1037.24027811
  ---------------------------------------------------
  free energy    TOTEN  =        29.12891382 eV

  energy without entropy =       29.12959319  energy(sigma->0) =       29.12914028


--------------------------------------------------------------------------------------------------------




----------------------------------------- Iteration    1(   2)  ---------------------------------------


     EDDAV:  cpu time    0.93: real time    0.93
       DOS:  cpu time    0.00: real time    0.00
    --------------------------------------------
      LOOP:  cpu time    0.94: real time    0.94

 eigenvalue-minimisations  :  1103
 total energy-change (2. order) :-0.3164752E+02  (-0.3006234E+02)
 number of electron      11.0000000 magnetization 
 augmentation part       11.0000000 magnetization 

 Free energy of the ion-electron system (eV)
  ---------------------------------------------------
  alpha Z        PSCENC =        39.47598558
  Ewald energy   TEWEN  =      -904.25446026
  -Hartree energ DENC   =      -239.37833877
  -exchange      EXHF   =         0.00000000
  -V(xc)+E(xc)   XCENC  =       -10.97217075
  PAW double counting   =      1003.46214933     -957.34927423
  entropy T*S    EENTRO =        -0.00065623
  eigenvalues    EBANDS =        29.25788090
  atomic energy  EATOM  =      1037.24027811
  ---------------------------------------------------
  free energy    TOTEN  =        -2.51860633 eV

  energy without entropy =       -2.51795010  energy(sigma->0) =       -2.51838758


--------------------------------------------------------------------------------------------------------




----------------------------------------- Iteration    1(   3)  ---------------------------------------


     EDDAV:  cpu time    0.97: real time    0.97
       DOS:  cpu time    0.00: real time    0.01
    --------------------------------------------
      LOOP:  cpu time    0.98: real time    0.99

 eigenvalue-minimisations  :  1291
 total energy-change (2. order) :-0.2306940E+00  (-0.2306219E+00)
 number of electron      11.0000000 magnetization 
 augmentation part       11.0000000 magnetization 

 Free energy of the ion-electron system (eV)
  ---------------------------------------------------
  alpha Z        PSCENC =        39.47598558
  Ewald energy   TEWEN  =      -904.25446026
  -Hartree energ DENC   =      -239.37833877
  -exchange      EXHF   =         0.00000000
  -V(xc)+E(xc)   XCENC  =       -10.97217075
  PAW double counting   =      1003.46214933     -957.34927423
  entropy T*S    EENTRO =        -0.00061585
  eigenvalues    EBANDS =        29.02714649
  atomic energy  EATOM  =      1037.24027811
  ---------------------------------------------------
  free energy    TOTEN  =        -2.74930036 eV

  energy without entropy =       -2.74868451  energy(sigma->0) =       -2.74909508


--------------------------------------------------------------------------------------------------------




----------------------------------------- Iteration    1(   4)  ---------------------------------------


     EDDAV:  cpu time    0.89: real time    0.89
       DOS:  cpu time    0.00: real time    0.01
    --------------------------------------------
      LOOP:  cpu time    0.90: real time    0.92

 eigenvalue-minimisations  :  1260
 total energy-change (2. order) :-0.5189719E-03  (-0.5189672E-03)
 number of electron      11.0000000 magnetization 
 augmentation part       11.0000000 magnetization 

 Free energy of the ion-electron system (eV)
  ---------------------------------------------------
  alpha Z        PSCENC =        39.47598558
  Ewald energy   TEWEN  =      -904.25446026
  -Hartree energ DENC   =      -239.37833877
  -exchange      EXHF   =         0.00000000
  -V(xc)+E(xc)   XCENC  =       -10.97217075
  PAW double counting   =      1003.46214933     -957.34927423
  entropy T*S    EENTRO =        -0.00061551
  eigenvalues    EBANDS =        29.02662717
  atomic energy  EATOM  =      1037.24027811
  ---------------------------------------------------
  free energy    TOTEN  =        -2.74981934 eV

  energy without entropy =       -2.74920383  energy(sigma->0) =       -2.74961417


--------------------------------------------------------------------------------------------------------




----------------------------------------- Iteration    1(   5)  ---------------------------------------


     EDDAV:  cpu time    0.75: real time    0.75
       DOS:  cpu time    0.00: real time    0.01
    CHARGE:  cpu time    0.06: real time    0.06
    MIXING:  cpu time    0.00: real time    0.00
    --------------------------------------------
      LOOP:  cpu time    0.82: real time    0.89

 eigenvalue-minimisations  :  1098
 total energy-change (2. order) :-0.4177437E-05  (-0.4177345E-05)
 number of electron      11.0000066 magnetization 
 augmentation part        5.1357622 magnetization 

 Broyden mixing:
  rms(total) = 0.29497E+00    rms(broyden)= 0.29492E+00
  rms(prec ) = 0.96509E+00
  weight for this iteration     100.00

 Free energy of the ion-electron system (eV)
  ---------------------------------------------------
  alpha Z        PSCENC =        39.47598558
  Ewald energy   TEWEN  =      -904.25446026
  -Hartree energ DENC   =      -239.37833877
  -exchange      EXHF   =         0.00000000
  -V(xc)+E(xc)   XCENC  =       -10.97217075
  PAW double counting   =      1003.46214933     -957.34927423
  entropy T*S    EENTRO =        -0.00061551
  eigenvalues    EBANDS =        29.02662300
  atomic energy  EATOM  =      1037.24027811
  ---------------------------------------------------
  free energy    TOTEN  =        -2.74982351 eV

  energy without entropy =       -2.74920800  energy(sigma->0) =       -2.74961834


--------------------------------------------------------------------------------------------------------




----------------------------------------- Iteration    1(   6)  ---------------------------------------


    POTLOK:  cpu time    0.03: real time    0.03
    SETDIJ:  cpu time    0.01: real time    0.01
     EDDAV:  cpu time    0.74: real time    0.74
       DOS:  cpu time    0.00: real time    0.01
    CHARGE:  cpu time    0.06: real time    0.06
    MIXING:  cpu time    0.00: real time    0.00
    --------------------------------------------
      LOOP:  cpu time    0.85: real time    0.93

 eigenvalue-minimisations  :  1119
 total energy-change (2. order) : 0.1675506E+00  (-0.9341828E-01)
 number of electron      11.0000068 magnetization 
 augmentation part        5.2860908 magnetization 

 Broyden mixing:
  rms(total) = 0.21625E+00    rms(broyden)= 0.21624E+00
  rms(prec ) = 0.25063E+00
  weight for this iteration     100.00

 eigenvalues of (default mixing * dielectric matrix)
  average eigenvalue GAMMA=   0.7773
  0.7773

 Free energy of the ion-electron system (eV)
  ---------------------------------------------------
  alpha Z        PSCENC =        39.47598558
  Ewald energy   TEWEN  =      -904.25446026
  -Hartree energ DENC   =      -230.66456371
  -exchange      EXHF   =         0.00000000
  -V(xc)+E(xc)   XCENC  =       -11.29243757
  PAW double counting   =      1017.84460803     -972.27785021
  entropy T*S    EENTRO =         0.00018434
  eigenvalues    EBANDS =        21.34598281
  atomic energy  EATOM  =      1037.24027811
  ---------------------------------------------------
  free energy    TOTEN  =        -2.58227289 eV

  energy without entropy =       -2.58245723  energy(sigma->0) =       -2.58233434


--------------------------------------------------------------------------------------------------------




----------------------------------------- Iteration    1(   7)  ---------------------------------------


    POTLOK:  cpu time    0.03: real time    0.03
    SETDIJ:  cpu time    0.01: real time    0.01
     EDDAV:  cpu time    0.81: real time    0.81
       DOS:  cpu time    0.00: real time    0.01
    CHARGE:  cpu time    0.06: real time    0.06
    MIXING:  cpu time    0.00: real time    0.00
    --------------------------------------------
      LOOP:  cpu time    0.91: real time    0.97

 eigenvalue-minimisations  :  1170
 total energy-change (2. order) : 0.2174335E-02  (-0.2232524E-03)
 number of electron      11.0000068 magnetization 
 augmentation part        5.2904414 magnetization 

 Broyden mixing:
  rms(total) = 0.12701E+00    rms(broyden)= 0.12701E+00
  rms(prec ) = 0.14515E+00
  weight for this iteration     100.00

 eigenvalues of (default mixing * dielectric matrix)
  average eigenvalue GAMMA=   1.7756
  1.0209  2.5304

 Free energy of the ion-electron system (eV)
  ---------------------------------------------------
  alpha Z        PSCENC =        39.47598558
  Ewald energy   TEWEN  =      -904.25446026
  -Hartree energ DENC   =      -229.76597327
  -exchange      EXHF   =         0.00000000
  -V(xc)+E(xc)   XCENC  =       -11.33047422
  PAW double counting   =      1031.89434710     -986.73368571
  entropy T*S    EENTRO =         0.00017975
  eigenvalues    EBANDS =        20.89370436
  atomic energy  EATOM  =      1037.24027811
  ---------------------------------------------------
  free energy    TOTEN  =        -2.58009855 eV

  energy without entropy =       -2.58027830  energy(sigma->0) =       -2.58015847


--------------------------------------------------------------------------------------------------------




----------------------------------------- Iteration    1(   8)  ---------------------------------------


    POTLOK:  cpu time    0.03: real time    0.03
    SETDIJ:  cpu time    0.01: real time    0.01
     EDDAV:  cpu time    0.76: real time    0.76
       DOS:  cpu time    0.00: real time    0.00
    CHARGE:  cpu time    0.06: real time    0.06
    MIXING:  cpu time    0.00: real time    0.00
    --------------------------------------------
      LOOP:  cpu time    0.86: real time    0.88

 eigenvalue-minimisations  :  1146
 total energy-change (2. order) : 0.1031555E-02  (-0.7540289E-04)
 number of electron      11.0000068 magnetization 
 augmentation part        5.2925677 magnetization 

 Broyden mixing:
  rms(total) = 0.32624E-02    rms(broyden)= 0.32614E-02
  rms(prec ) = 0.56849E-02
  weight for this iteration     100.00

 eigenvalues of (default mixing * dielectric matrix)
  average eigenvalue GAMMA=   1.6342
  2.4888  1.0136  1.4003

 Free energy of the ion-electron system (eV)
  ---------------------------------------------------
  alpha Z        PSCENC =        39.47598558
  Ewald energy   TEWEN  =      -904.25446026
  -Hartree energ DENC   =      -228.74275742
  -exchange      EXHF   =         0.00000000
  -V(xc)+E(xc)   XCENC  =       -11.37472228
  PAW double counting   =      1051.63141877    -1007.02166030
  entropy T*S    EENTRO =         0.00017661
  eigenvalues    EBANDS =        20.46667421
  atomic energy  EATOM  =      1037.24027811
  ---------------------------------------------------
  free energy    TOTEN  =        -2.57906700 eV

  energy without entropy =       -2.57924360  energy(sigma->0) =       -2.57912587


--------------------------------------------------------------------------------------------------------




----------------------------------------- Iteration    1(   9)  ---------------------------------------


    POTLOK:  cpu time    0.03: real time    0.03
    SETDIJ:  cpu time    0.01: real time    0.01
     EDDAV:  cpu time    0.50: real time    0.50
       DOS:  cpu time    0.00: real time    0.01
    --------------------------------------------
      LOOP:  cpu time    0.54: real time    0.55

 eigenvalue-minimisations  :   568
 total energy-change (2. order) :-0.2056278E-04  (-0.1285457E-05)
 number of electron      11.0000068 magnetization 
 augmentation part        5.2925677 magnetization 

 Free energy of the ion-electron system (eV)
  ---------------------------------------------------
  alpha Z        PSCENC =        39.47598558
  Ewald energy   TEWEN  =      -904.25446026
  -Hartree energ DENC   =      -228.75794951
  -exchange      EXHF   =         0.00000000
  -V(xc)+E(xc)   XCENC  =       -11.37461884
  PAW double counting   =      1051.77658960    -1007.14256455
  entropy T*S    EENTRO =         0.00017825
  eigenvalues    EBANDS =        20.45747406
  atomic energy  EATOM  =      1037.24027811
  ---------------------------------------------------
  free energy    TOTEN  =        -2.57908756 eV

  energy without entropy =       -2.57926581  energy(sigma->0) =       -2.57914698


--------------------------------------------------------------------------------------------------------




 average (electrostatic) potential at core
  the test charge radii are     1.1249
  (the norm of the test charge is              1.0000)
       1 -73.1011
 
 
 
 E-fermi :   5.6080     XC(G=0): -10.8673     alpha+bet :-10.6529


 k-point     1 :       0.0625    0.0625    0.0625
  band No.  band energies     occupation 
      1      -0.5323      2.00000
      2       1.4676      2.00000
      3       1.5071      2.00000
      4       1.5071      2.00000
      5       2.1546      2.00000
      6       2.1546      2.00000
      7      20.8143      0.00000
      8      22.1586      0.00000
      9      23.0808      0.00000

 k-point     2 :       0.1875    0.0625    0.0625
  band No.  band energies     occupation 
      1      -0.0285      2.00000
      2       1.3898      2.00000
      3       1.6047      2.00000
      4       1.6280      2.00000
      5       2.0738      2.00000
      6       2.2181      2.00000
      7      18.8598      0.00000
      8      20.4787      0.00000
      9      22.5056      0.00000

 k-point     3 :       0.3125    0.0625    0.0625
  band No.  band energies     occupation 
      1       0.5887      2.00000
      2       1.5794      2.00000
      3       1.6442      2.00000
      4       1.8788      2.00000
      5       2.1933      2.00000
      6       2.5895      2.00000
      7      14.3969      0.00000
      8      19.8722      0.00000
      9      21.9148      0.00000

 k-point     4 :       0.4375    0.0625    0.0625
  band No.  band energies     occupation 
      1       0.5346      2.00000
      2       1.4975      2.00000
      3       1.5447      2.00000
      4       2.4905      2.00000
      5       2.5207      2.00000
      6       4.3183      2.00000
      7      10.2904      0.00000
      8      19.5800      0.00000
      9      20.8307      0.00000

 k-point     5 :      -0.4375    0.0625    0.0625
  band No.  band energies     occupation 
      1       0.4864      2.00000
      2       1.4511      2.00000
      3       1.5174      2.00000
      4       2.5531      2.00000
      5       2.6914      2.00000
      6       5.8479     -0.07071
      7       8.2414      0.00000
      8      19.8535      0.00000
      9      20.5665      0.00000

 k-point     6 :      -0.3125    0.0625    0.0625
  band No.  band energies     occupation 
      1       0.5670      2.00000
      2       1.5204      2.00000
      3       1.5913      2.00000
      4       2.2424      2.00000
      5       2.5695      2.00000
      6       3.5354      2.00000
      7      11.5821      0.00000
      8      20.4028      0.00000
      9      20.5348      0.00000

 k-point     7 :      -0.1875    0.0625    0.0625
  band No.  band energies     occupation 
      1       0.4754      2.00000
      2       1.4966      2.00000
      3       1.6660      2.00000
      4       1.6730      2.00000
      5       2.2204      2.00000
      6       2.3084      2.00000
      7      15.8729      0.00000
      8      21.0004      0.00000
      9      21.1280      0.00000

 k-point     8 :      -0.0625    0.0625    0.0625
  band No.  band energies     occupation 
      1      -0.2698      2.00000
      2       1.3988      2.00000
      3       1.5801      2.00000
      4       1.5808      2.00000
      5       2.0850      2.00000
      6       2.1962      2.00000
      7      20.2006      0.00000
      8      21.3612      0.00000
      9      22.0279      0.00000

 k-point     9 :       0.1875    0.1875    0.0625
  band No.  band energies     occupation 
      1       0.2105      2.00000
      2       1.2604      2.00000
      3       1.7134      2.00000
      4       1.7228      2.00000
      5       2.0222      2.00000
      6       2.2738      2.00000
      7      19.0756      0.00000
      8      20.5468      0.00000
      9      20.8993      0.00000

 k-point    10 :       0.3125    0.1875    0.0625
  band No.  band energies     occupation 
      1       0.8240      2.00000
      2       1.1778      2.00000
      3       1.6441      2.00000
      4       1.8972      2.00000
      5       2.2595      2.00000
      6       2.6778      2.00000
      7      16.2690      0.00000
      8      18.0956      0.00000
      9      20.9493      0.00000

 k-point    11 :       0.4375    0.1875    0.0625
  band No.  band energies     occupation 
      1       0.7905      2.00000
      2       1.4218      2.00000
      3       1.6815      2.00000
      4       1.8697      2.00000
      5       2.5827      2.00000
      6       4.3180      2.00000
      7      11.9996      0.00000
      8      17.7068      0.00000
      9      18.8837      0.00000

 k-point    12 :      -0.4375    0.1875    0.0625
  band No.  band energies     occupation 
      1       0.7308      2.00000
      2       1.3212      2.00000
      3       1.7355      2.00000
      4       2.0754      2.00000
      5       2.6677      2.00000
      6       6.8180      0.00000
      7       8.5026      0.00000
      8      17.3443      0.00000
      9      18.1658      0.00000

 k-point    13 :      -0.3125    0.1875    0.0625
  band No.  band energies     occupation 
      1       0.8058      2.00000
      2       1.3738      2.00000
      3       1.7373      2.00000
      4       1.9818      2.00000
      5       2.4906      2.00000
      6       5.1487      2.00547
      7      10.7315      0.00000
      8      16.6403      0.00000
      9      19.4155      0.00000

 k-point    14 :      -0.1875    0.1875    0.0625
  band No.  band energies     occupation 
      1       0.9497      2.00000
      2       1.3283      2.00000
      3       1.5889      2.00000
      4       1.8861      2.00000
      5       2.1328      2.00000
      6       3.2219      2.00000
      7      14.8273      0.00000
      8      16.7594      0.00000
      9      21.2658      0.00000

 k-point    15 :      -0.0625    0.1875    0.0625
  band No.  band energies     occupation 
      1       0.3999      2.00000
      2       1.3015      2.00000
      3       1.6834      2.00000
      4       1.7196      2.00000
      5       2.0587      2.00000
      6       2.3571      2.00000
      7      17.5162      0.00000
      8      19.3027      0.00000
      9      22.2431      0.00000

 k-point    16 :       0.3125    0.3125    0.0625
  band No.  band energies     occupation 
      1       0.8360      2.00000
      2       0.9064      2.00000
      3       2.0727      2.00000
      4       2.1527      2.00000
      5       2.4921      2.00000
      6       2.9935      2.00000
      7      16.6433      0.00000
      8      17.6422      0.00000
      9      18.2077      0.00000

 k-point    17 :       0.4375    0.3125    0.0625
  band No.  band energies     occupation 
      1       0.7713      2.00000
      2       0.8831      2.00000
      3       2.0110      2.00000
      4       2.3522      2.00000
      5       2.6094      2.00000
      6       4.6972      2.00000
      7      14.1651      0.00000
      8      15.6742      0.00000
      9      16.1182      0.00000

 k-point    18 :      -0.4375    0.3125    0.0625
  band No.  band energies     occupation 
      1       0.7898      2.00000
      2       1.1049      2.00000
      3       1.8361      2.00000
      4       2.1874      2.00000
      5       2.7023      2.00000
      6       7.3004      0.00000
      7      10.4613      0.00000
      8      13.9317      0.00000
      9      16.2983      0.00000

 k-point    19 :      -0.3125    0.3125    0.0625
  band No.  band energies     occupation 
      1       0.9858      2.00000
      2       1.3380      2.00000
      3       1.5814      2.00000
      4       2.0724      2.00000
      5       2.4998      2.00000
      6       7.3796      0.00000
      7      10.6045      0.00000
      8      12.7996      0.00000
      9      17.5263      0.00000

 k-point    20 :      -0.1875    0.3125    0.0625
  band No.  band energies     occupation 
      1       1.0902      2.00000
      2       1.3169      2.00000
      3       1.5724      2.00000
      4       1.9953      2.00000
      5       2.2853      2.00000
      6       4.9973      2.00014
      7      12.5119      0.00000
      8      14.5053      0.00000
      9      19.3227      0.00000

 k-point    21 :      -0.0625    0.3125    0.0625
  band No.  band energies     occupation 
      1       0.7047      2.00000
      2       1.5291      2.00000
      3       1.6815      2.00000
      4       1.8560      2.00000
      5       2.3965      2.00000
      6       3.2514      2.00000
      7      13.1029      0.00000
      8      18.7425      0.00000
      9      21.0620      0.00000

 k-point    22 :       0.4375    0.4375    0.0625
  band No.  band energies     occupation 
      1       0.5588      2.00000
      2       0.6046      2.00000
      3       2.5506      2.00000
      4       2.5993      2.00000
      5       2.7202      2.00000
      6       5.7584      0.04658
      7      13.0024      0.00000
      8      14.9432      0.00000
      9      15.6782      0.00000

 k-point    23 :      -0.4375    0.4375    0.0625
  band No.  band energies     occupation 
      1       0.5712      2.00000
      2       0.6568      2.00000
      3       2.4219      2.00000
      4       2.5488      2.00000
      5       2.7940      2.00000
      6       7.7414      0.00000
      7      11.1570      0.00000
      8      13.3398      0.00000
      9      14.9159      0.00000

 k-point    24 :      -0.3125    0.4375    0.0625
  band No.  band energies     occupation 
      1       0.7527      2.00000
      2       1.0354      2.00000
      3       1.9296      2.00000
      4       2.2922      2.00000
      5       2.6863      2.00000
      6       8.9873      0.00000
      7      10.1012      0.00000
      8      11.8619      0.00000
      9      15.9839      0.00000

 k-point    25 :      -0.1875    0.4375    0.0625
  band No.  band energies     occupation 
      1       0.8958      2.00000
      2       1.2597      2.00000
      3       1.8260      2.00000
      4       1.9119      2.00000
      5       2.6026      2.00000
      6       7.5489      0.00000
      7       8.8746      0.00000
      8      15.0058      0.00000
      9      17.7393      0.00000

 k-point    26 :      -0.0625    0.4375    0.0625
  band No.  band energies     occupation 
      1       0.5957      2.00000
      2       1.4183      2.00000
      3       1.6033      2.00000
      4       2.3099      2.00000
      5       2.6441      2.00000
      6       5.4634      1.93539
      7       9.2435      0.00000
      8      18.7839      0.00000
      9      19.6214      0.00000

 k-point    27 :      -0.4375   -0.4375    0.0625
  band No.  band energies     occupation 
      1       0.4707      2.00000
      2       0.5353      2.00000
      3       2.6296      2.00000
      4       2.7319      2.00000
      5       2.8013      2.00000
      6       7.2309      0.00000
      7      11.0770      0.00000
      8      14.5301      0.00000
      9      15.2472      0.00000

 k-point    28 :      -0.3125   -0.4375    0.0625
  band No.  band energies     occupation 
      1       0.6499      2.00000
      2       0.7316      2.00000
      3       2.2479      2.00000
      4       2.5176      2.00000
      5       2.7140      2.00000
      6       6.2198     -0.00013
      7      12.9520      0.00000
      8      13.8751      0.00000
      9      15.3021      0.00000

 k-point    29 :      -0.1875   -0.4375    0.0625
  band No.  band energies     occupation 
      1       0.8171      2.00000
      2       1.2480      2.00000
      3       1.7244      2.00000
      4       2.0253      2.00000
      5       2.6796      2.00000
      6       5.6898      0.36816
      7      11.1064      0.00000
      8      16.3039      0.00000
      9      16.9319      0.00000

 k-point    30 :      -0.3125   -0.3125    0.0625
  band No.  band energies     occupation 
      1       0.7018      2.00000
      2       0.7400      2.00000
      3       2.3652      2.00000
      4       2.3802      2.00000
      5       2.6085      2.00000
      6       4.2344      2.00000
      7      15.3278      0.00000
      8      15.8302      0.00000
      9      16.4989      0.00000

 k-point    31 :      -0.1875   -0.3125    0.0625
  band No.  band energies     occupation 
      1       0.8921      2.00000
      2       1.0597      2.00000
      3       1.7577      2.00000
      4       2.1203      2.00000
      5       2.4693      2.00000
      6       3.4610      2.00000
      7      15.1477      0.00000
      8      16.9394      0.00000
      9      18.3921      0.00000

 k-point    32 :      -0.1875   -0.1875    0.0625
  band No.  band energies     occupation 
      1       0.7137      2.00000
      2       1.0848      2.00000
      3       1.8196      2.00000
      4       1.9210      2.00000
      5       2.2490      2.00000
      6       2.3769      2.00000
      7      17.8386      0.00000
      8      19.0261      0.00000
      9      20.4748      0.00000

 k-point    33 :       0.1875    0.1875    0.1875
  band No.  band energies     occupation 
      1       0.1653      2.00000
      2       1.4755      2.00000
      3       1.6170      2.00000
      4       1.6170      2.00000
      5       2.1639      2.00000
      6       2.1639      2.00000
      7      17.3005      0.00000
      8      21.4252      0.00000
      9      22.7070      0.00000

 k-point    34 :       0.3125    0.1875    0.1875
  band No.  band energies     occupation 
      1       0.6999      2.00000
      2       1.3317      2.00000
      3       1.6995      2.00000
      4       1.7606      2.00000
      5       1.9998      2.00000
      6       2.6642      2.00000
      7      16.0900      0.00000
      8      17.9744      0.00000
      9      22.8234      0.00000

 k-point    35 :       0.4375    0.1875    0.1875
  band No.  band energies     occupation 
      1       1.0303      2.00000
      2       1.3596      2.00000
      3       1.7116      2.00000
      4       1.8487      2.00000
      5       2.1132      2.00000
      6       3.9735      2.00000
      7      13.5719      0.00000
      8      15.5413      0.00000
      9      21.5699      0.00000

 k-point    36 :      -0.4375    0.1875    0.1875
  band No.  band energies     occupation 
      1       0.8369      2.00000
      2       1.3319      2.00000
      3       1.7815      2.00000
      4       1.9864      2.00000
      5       2.5059      2.00000
      6       6.2297     -0.00010
      7       9.6828      0.00000
      8      15.7174      0.00000
      9      19.7825      0.00000

 k-point    37 :      -0.3125    0.1875    0.1875
  band No.  band energies     occupation 
      1       0.7536      2.00000
      2       1.3221      2.00000
      3       1.8204      2.00000
      4       1.9066      2.00000
      5       2.7111      2.00000
      6       6.1984     -0.00024
      7       9.6151      0.00000
      8      16.7567      0.00000
      9      18.4865      0.00000

 k-point    38 :      -0.1875    0.1875    0.1875
  band No.  band energies     occupation 
      1       0.8090      2.00000
      2       1.2890      2.00000
      3       1.6998      2.00000
      4       1.9169      2.00000
      5       2.6101      2.00000
      6       3.7408      2.00000
      7      13.4815      0.00000
      8      18.2727      0.00000
      9      18.5478      0.00000

 k-point    39 :       0.3125    0.3125    0.1875
  band No.  band energies     occupation 
      1       0.7359      2.00000
      2       1.4721      2.00000
      3       1.5946      2.00000
      4       1.7662      2.00000
      5       2.4678      2.00000
      6       2.7590      2.00000
      7      14.5957      0.00000
      8      19.6053      0.00000
      9      20.4680      0.00000

 k-point    40 :       0.4375    0.3125    0.1875
  band No.  band energies     occupation 
      1       1.0020      2.00000
      2       1.3104      2.00000
      3       1.4699      2.00000
      4       2.0857      2.00000
      5       2.3569      2.00000
      6       4.1412      2.00000
      7      13.7400      0.00000
      8      15.6849      0.00000
      9      18.7581      0.00000

 k-point    41 :      -0.4375    0.3125    0.1875
  band No.  band energies     occupation 
      1       1.1391      2.00000
      2       1.1991      2.00000
      3       1.4655      2.00000
      4       2.1433      2.00000
      5       2.4892      2.00000
      6       6.3102     -0.00001
      7      11.6549      0.00000
      8      13.6818      0.00000
      9      16.8364      0.00000

 k-point    42 :      -0.3125    0.3125    0.1875
  band No.  band energies     occupation 
      1       0.9832      2.00000
      2       1.1753      2.00000
      3       1.6407      2.00000
      4       2.0844      2.00000
      5       2.6604      2.00000
      6       8.1642      0.00000
      7       9.2568      0.00000
      8      14.4321      0.00000
      9      15.5586      0.00000

 k-point    43 :      -0.1875    0.3125    0.1875
  band No.  band energies     occupation 
      1       0.9282      2.00000
      2       1.1015      2.00000
      3       1.6377      2.00000
      4       2.2814      2.00000
      5       2.5341      2.00000
      6       5.4175      2.03898
      7      12.8439      0.00000
      8      14.7648      0.00000
      9      16.2718      0.00000

 k-point    44 :       0.4375    0.4375    0.1875
  band No.  band energies     occupation 
      1       0.7547      2.00000
      2       1.0663      2.00000
      3       1.9299      2.00000
      4       2.1017      2.00000
      5       2.7078      2.00000
      6       5.0564      2.00068
      7      12.5547      0.00000
      8      15.9794      0.00000
      9      17.2043      0.00000

 k-point    45 :      -0.4375    0.4375    0.1875
  band No.  band energies     occupation 
      1       0.8304      2.00000
      2       0.9430      2.00000
      3       1.8371      2.00000
      4       2.3786      2.00000
      5       2.6865      2.00000
      6       6.9665      0.00000
      7      12.1418      0.00000
      8      13.5804      0.00000
      9      14.4958      0.00000

 k-point    46 :      -0.3125    0.4375    0.1875
  band No.  band energies     occupation 
      1       0.9415      2.00000
      2       1.1620      2.00000
      3       1.5466      2.00000
      4       2.2162      2.00000
      5       2.7910      2.00000
      6       9.5936      0.00000
      7      10.6660      0.00000
      8      11.9387      0.00000
      9      13.2819      0.00000

 k-point    47 :      -0.1875    0.4375    0.1875
  band No.  band energies     occupation 
      1       1.0355      2.00000
      2       1.1668      2.00000
      3       1.4889      2.00000
      4       2.2112      2.00000
      5       2.6736      2.00000
      6       7.8806      0.00000
      7      11.0300      0.00000
      8      13.0284      0.00000
      9      14.5604      0.00000

 k-point    48 :      -0.4375   -0.4375    0.1875
  band No.  band energies     occupation 
      1       0.6143      2.00000
      2       0.8142      2.00000
      3       2.2737      2.00000
      4       2.4304      2.00000
      5       2.7279      2.00000
      6       8.2013      0.00000
      7      11.0547      0.00000
      8      12.0145      0.00000
      9      16.0695      0.00000

 k-point    49 :      -0.3125   -0.4375    0.1875
  band No.  band energies     occupation 
      1       0.7552      2.00000
      2       0.8744      2.00000
      3       1.9888      2.00000
      4       2.3738      2.00000
      5       2.7916      2.00000
      6       8.5873      0.00000
      7      11.2382      0.00000
      8      12.2350      0.00000
      9      14.0332      0.00000

 k-point    50 :      -0.3125   -0.3125    0.1875
  band No.  band energies     occupation 
      1       0.6720      2.00000
      2       0.8986      2.00000
      3       2.1452      2.00000
      4       2.2898      2.00000
      5       2.7438      2.00000
      6       6.6182      0.00000
      7      11.8342      0.00000
      8      13.6081      0.00000
      9      16.4558      0.00000

 k-point    51 :       0.3125    0.3125    0.3125
  band No.  band energies     occupation 
      1       0.5390      2.00000
      2       1.5815      2.00000
      3       1.5815      2.00000
      4       2.3973      2.00000
      5       2.3973      2.00000
      6       2.6057      2.00000
      7      12.8881      0.00000
      8      20.8407      0.00000
      9      21.9157      0.00000

 k-point    52 :       0.4375    0.3125    0.3125
  band No.  band energies     occupation 
      1       0.7315      2.00000
      2       1.4721      2.00000
      3       1.6720      2.00000
      4       2.0844      2.00000
      5       2.3281      2.00000
      6       4.0489      2.00000
      7      11.8128      0.00000
      8      17.6090      0.00000
      9      21.2097      0.00000

 k-point    53 :      -0.4375    0.3125    0.3125
  band No.  band energies     occupation 
      1       1.0388      2.00000
      2       1.3589      2.00000
      3       1.6607      2.00000
      4       1.9525      2.00000
      5       2.3471      2.00000
      6       6.0668     -0.00553
      7      11.4670      0.00000
      8      13.5276      0.00000
      9      19.6107      0.00000

 k-point    54 :      -0.3125    0.3125    0.3125
  band No.  band energies     occupation 
      1       0.8289      2.00000
      2       1.2401      2.00000
      3       1.7747      2.00000
      4       2.1646      2.00000
      5       2.5682      2.00000
      6       8.6491      0.00000
      7       9.6958      0.00000
      8      12.1879      0.00000
      9      17.5812      0.00000

 k-point    55 :       0.4375    0.4375    0.3125
  band No.  band energies     occupation 
      1       0.6518      2.00000
      2       1.4269      2.00000
      3       1.6749      2.00000
      4       2.0557      2.00000
      5       2.6806      2.00000
      6       4.7459      2.00000
      7      10.4863      0.00000
      8      19.1543      0.00000
      9      19.3777      0.00000

 k-point    56 :      -0.4375    0.4375    0.3125
  band No.  band energies     occupation 
      1       0.9100      2.00000
      2       1.2470      2.00000
      3       1.7448      2.00000
      4       1.9605      2.00000
      5       2.6108      2.00000
      6       6.5323      0.00000
      7       9.8702      0.00000
      8      15.8403      0.00000
      9      17.0383      0.00000

 k-point    57 :      -0.3125    0.4375    0.3125
  band No.  band energies     occupation 
      1       0.9607      2.00000
      2       1.2242      2.00000
      3       1.5580      2.00000
      4       2.1719      2.00000
      5       2.6724      2.00000
      6       8.9281      0.00000
      7       9.9639      0.00000
      8      12.3173      0.00000
      9      15.2394      0.00000

 k-point    58 :      -0.4375   -0.4375    0.3125
  band No.  band energies     occupation 
      1       0.8185      2.00000
      2       1.2535      2.00000
      3       1.8147      2.00000
      4       2.0026      2.00000
      5       2.6605      2.00000
      6       7.8651      0.00000
      7       9.0041      0.00000
      8      14.3619      0.00000
      9      17.8841      0.00000

 k-point    59 :       0.4375    0.4375    0.4375
  band No.  band energies     occupation 
      1       0.4534      2.00000
      2       1.4909      2.00000
      3       1.4909      2.00000
      4       2.6502      2.00000
      5       2.6502      2.00000
      6       4.9527      2.00004
      7       9.0589      0.00000
      8      20.2349      0.00000
      9      21.1788      0.00000

 k-point    60 :      -0.4375    0.4375    0.4375
  band No.  band energies     occupation 
      1       0.6231      2.00000
      2       1.3878      2.00000
      3       1.6204      2.00000
      4       2.3068      2.00000
      5       2.6382      2.00000
      6       6.3738      0.00000
      7       8.3717      0.00000
      8      17.9715      0.00000
      9      20.1234      0.00000


--------------------------------------------------------------------------------------------------------


 soft charge-density along one line, spin component           1
         0         1         2         3         4         5         6         7         8         9
x     5.7074    0.0000    1.3233    0.0000   -0.3013    0.0000   -0.0730    0.0000    0.0246    0.0000
x     0.0047    0.0000    0.0000    0.0000    0.0000    0.0000
y     5.7074    0.0000    1.3233    0.0000   -0.3013    0.0000   -0.0730    0.0000    0.0246    0.0000
y     0.0047    0.0000    0.0000    0.0000    0.0000    0.0000
z     5.7074    0.0000    1.3233    0.0000   -0.3013    0.0000   -0.0730    0.0000    0.0246    0.0000
z     0.0047    0.0000    0.0000    0.0000    0.0000    0.0000
 total charge-density along one line
x    11.0000    0.0000    5.1911    0.0000    1.0718    0.0000    0.0515    0.0000    0.0037    0.0000
x     0.0097    0.0000   -0.0015    0.0000    0.0004    0.0000   -0.0001    0.0000    0.0000    0.0000
x     0.0001    0.0000   -0.0001    0.0000    0.0001    0.0000    0.0000    0.0000    0.0000    0.0000
y    11.0000    0.0000    5.1911    0.0000    1.0718    0.0000    0.0515    0.0000    0.0037    0.0000
y     0.0097    0.0000   -0.0015    0.0000    0.0004    0.0000   -0.0001    0.0000    0.0000    0.0000
y     0.0001    0.0000   -0.0001    0.0000    0.0001    0.0000    0.0000    0.0000    0.0000    0.0000
z    11.0000    0.0000    5.1911    0.0000    1.0718    0.0000    0.0515    0.0000    0.0037    0.0000
z     0.0097    0.0000   -0.0015    0.0000    0.0004    0.0000   -0.0001    0.0000    0.0000    0.0000
z     0.0001    0.0000   -0.0001    0.0000    0.0001    0.0000    0.0000    0.0000    0.0000    0.0000
 
 pseudopotential strength for first ion, spin component:           1
 -5.363   0.000   0.000  -0.003   0.000  -5.541   0.000   0.000
  0.000  -5.361   0.000   0.000  -0.003   0.000  -5.539   0.000
  0.000   0.000  -5.365   0.000   0.000   0.000   0.000  -5.543
 -0.003   0.000   0.000  -5.361   0.000  -0.003   0.000   0.000
  0.000  -0.003   0.000   0.000  -5.363   0.000  -0.003   0.000
 -5.541   0.000   0.000  -0.003   0.000  -5.687   0.000   0.000
  0.000  -5.539   0.000   0.000  -0.003   0.000  -5.685   0.000
  0.000   0.000  -5.543   0.000   0.000   0.000   0.000  -5.689
 -0.003   0.000   0.000  -5.539   0.000  -0.003   0.000   0.000
  0.000  -0.003   0.000   0.000  -5.541   0.000  -0.003   0.000
  0.000   0.000   0.000   0.000   0.000   0.000   0.000   0.000
  0.000   0.000   0.000   0.000   0.000   0.000   0.000   0.000
  0.000   0.000   0.000   0.000   0.000   0.000   0.000   0.000
  0.000   0.000   0.000   0.000   0.000   0.000   0.000   0.000
  0.000   0.000   0.000   0.000   0.000   0.000   0.000   0.000
  0.000   0.000   0.000   0.000   0.000   0.000   0.000   0.000
  0.000   0.000   0.000   0.000   0.000   0.000   0.000   0.000
  0.000   0.000   0.000   0.000   0.000   0.000   0.000   0.000
 total augmentation occupancy for first ion, spin component:           1
  2.896   0.000   0.000  -0.009   0.000  -0.807   0.000   0.000  -0.033   0.000   0.000   0.000   0.000   0.000   0.000   0.000
  0.000   2.902   0.000   0.000  -0.009   0.000  -0.784   0.000   0.000  -0.033   0.000   0.000   0.000   0.000   0.000   0.000
  0.000   0.000   2.890   0.000   0.000   0.000   0.000  -0.830   0.000   0.000   0.000   0.000   0.000   0.000   0.000   0.000
 -0.009   0.000   0.000   2.902   0.000  -0.033   0.000   0.000  -0.784   0.000   0.000   0.000   0.000   0.000   0.000   0.000
  0.000  -0.009   0.000   0.000   2.896   0.000  -0.033   0.000   0.000  -0.807   0.000   0.000   0.000   0.000   0.000   0.000
 -0.807   0.000   0.000  -0.033   0.000   0.676   0.000   0.000   0.066   0.000   0.000   0.000   0.000   0.000   0.000   0.000
  0.000  -0.784   0.000   0.000  -0.033   0.000   0.630   0.000   0.000   0.066   0.000   0.000   0.000   0.000   0.000   0.000
  0.000   0.000  -0.830   0.000   0.000   0.000   0.000   0.722   0.000   0.000   0.000   0.000   0.000   0.000   0.000   0.000
 -0.033   0.000   0.000  -0.784   0.000   0.066   0.000   0.000   0.630   0.000   0.000   0.000   0.000   0.000   0.000   0.000
  0.000  -0.033   0.000   0.000  -0.807   0.000   0.066   0.000   0.000   0.676   0.000   0.000   0.000   0.000   0.000   0.000
  0.000   0.000   0.000   0.000   0.000   0.000   0.000   0.000   0.000   0.000   1.687  -0.270   0.000   0.000   0.000   0.000
  0.000   0.000   0.000   0.000   0.000   0.000   0.000   0.000   0.000   0.000  -0.270   0.056   0.000   0.000   0.000   0.000
  0.000   0.000   0.000   0.000   0.000   0.000   0.000   0.000   0.000   0.000   0.000   0.000   0.103   0.000   0.000  -0.006
  0.000   0.000   0.000   0.000   0.000   0.000   0.000   0.000   0.000   0.000   0.000   0.000   0.000   0.103   0.000   0.000
  0.000   0.000   0.000   0.000   0.000   0.000   0.000   0.000   0.000   0.000   0.000   0.000   0.000   0.000   0.103   0.000
  0.000   0.000   0.000   0.000   0.000   0.000   0.000   0.000   0.000   0.000   0.000   0.000  -0.006   0.000   0.000   0.000
  0.000   0.000   0.000   0.000   0.000   0.000   0.000   0.000   0.000   0.000   0.000   0.000   0.000  -0.006   0.000   0.000
  0.000   0.000   0.000   0.000   0.000   0.000   0.000   0.000   0.000   0.000   0.000   0.000   0.000   0.000  -0.006   0.000


------------------------ aborting loop because EDIFF is reached ----------------------------------------


    CHARGE:  cpu time    0.06: real time    0.06
    FORLOC:  cpu time    0.00: real time    0.00
    FORNL :  cpu time    0.09: real time    0.09
    STRESS:  cpu time    0.35: real time    0.35
    FORCOR:  cpu time    0.03: real time    0.03
    FORHAR:  cpu time    0.01: real time    0.01
    MIXING:  cpu time    0.00: real time    0.00
    OFIELD:  cpu time    0.00: real time    0.00

  FORCE on cell =-STRESS in cart. coord.  units (eV):
  Direction    XX          YY          ZZ          XY          YZ          ZX
  --------------------------------------------------------------------------------------
  Alpha Z    39.47599    39.47599    39.47599
  Ewald    -301.41816  -301.41816  -301.41816     0.00000     0.00000     0.00000
  Hartree    76.24692    76.24692    76.24692     0.00000     0.00000     0.00000
  E(xc)     -57.78425   -57.78425   -57.78425     0.00000     0.00000     0.00000
  Local      25.70104    25.70071    25.70062     0.00029     0.00012     0.00020
  n-local   -12.87526   -11.86508   -11.13799    -0.54239    -0.15960     1.36531
  augment    92.18430    92.18458    92.18465    -0.00025    -0.00010    -0.00018
  Kinetic   136.45640   136.59132   135.32603    -0.14754     0.04401    -0.64702
  Fock        0.00000     0.00000     0.00000     0.00000     0.00000     0.00000
  -------------------------------------------------------------------------------------
  Total      -1.42907    -1.42907    -1.42907     0.00000     0.00000     0.00000
  in kB    -106.26306  -106.26306  -106.26306     0.00000     0.00000     0.00000
  external pressure =     -106.26 kB  Pullay stress =        0.00 kB


 VOLUME and BASIS-vectors are now :
 -----------------------------------------------------------------------------
  energy-cutoff  :      350.00
  volume of cell :       21.55
      direct lattice vectors                 reciprocal lattice vectors
     3.123432074  0.000000000  0.000000000     0.320160636 -0.184844830 -0.130705032
     1.561716037  2.704971523  0.000000000     0.000000000  0.369689659 -0.130705032
     1.561716037  0.901657174  2.550271609     0.000000000  0.000000000  0.392115097

  length of vectors
     3.123432074  3.123432074  3.123432074     0.392115097  0.392115097  0.392115097


 FORCES acting on ions
    electron-ion (+dipol)            ewald-force                    non-local-force                 convergence-correction
 -----------------------------------------------------------------------------------------------
   -.566E-13 -.106E-14 0.347E-14   0.127E-14 0.458E-15 -.188E-15   -.190E-22 0.207E-23 0.000E+00   -.420E-13 -.637E-14 -.174E-14
 -----------------------------------------------------------------------------------------------
   -.566E-13 -.106E-14 0.347E-14   0.127E-14 0.458E-15 -.188E-15   -.190E-22 0.207E-23 0.000E+00   -.420E-13 -.637E-14 -.174E-14
 
 
 POSITION                                       TOTAL-FORCE (eV/Angst)
 -----------------------------------------------------------------------------------
      0.00000      0.00000      0.00000         0.000000      0.000000      0.000000
 -----------------------------------------------------------------------------------
    total drift:                                0.000000      0.000000      0.000000


--------------------------------------------------------------------------------------------------------



  FREE ENERGIE OF THE ION-ELECTRON SYSTEM (eV)
  ---------------------------------------------------
  free  energy   TOTEN  =        -2.57908756 eV

  energy  without entropy=       -2.57926581  energy(sigma->0) =       -2.57914698
 


--------------------------------------------------------------------------------------------------------


    POTLOK:  cpu time    0.03: real time    0.03


--------------------------------------------------------------------------------------------------------


 stress matrix after NEB project (eV)
     -1.42907      0.00000      0.00000
      0.00000     -1.42907      0.00000
      0.00000      0.00000     -1.42907
  FORCES: max atom, RMS     0.000000    0.000000
  FORCE total and by dimension    0.000000    0.000000
  Stress total and by dimension    2.475219    1.429068


--------------------------------------------------------------------------------------------------------


  
 reached required accuracy - stopping structural energy minimisation
 writing wavefunctions
     LOOP+:  cpu time    8.53: real time    8.87
    4ORBIT:  cpu time    0.00: real time    0.00

 total amount of memory used by VASP on root node    37111. kBytes
========================================================================

   base      :      30000. kBytes
   nonl-proj :       2865. kBytes
   grid      :       1216. kBytes
   one-center:         15. kBytes
   wavefun   :       3015. kBytes
 
  
  
 General timing and accounting informations for this job:
 ========================================================
  
                  Total CPU time used (sec):        9.023
                            User time (sec):        8.845
                          System time (sec):        0.178
                         Elapsed time (sec):        9.494
  
                   Maximum memory used (kb):           0.
                   Average memory used (kb):           0.
  
                          Minor page faults:         5817
                          Major page faults:            0
                 Voluntary context switches:         3410
