<?xml version="1.0" encoding="ISO-8859-1"?>
<modeling>
 <generator>
  <i name="program" type="string">vasp </i>
  <i name="version" type="string">5.3.5  </i>
  <i name="subversion" type="string">31Mar14 (build Jan 09 2015 16:57:47) complex                          serial </i>
  <i name="platform" type="string">LinuxIFC </i>
  <i name="date" type="string">2015 03 24 </i>
  <i name="time" type="string">14:26:01 </i>
 </generator>
 <incar>
  <i type="string" name="PREC">normal</i>
  <i type="int" name="IBRION">     2</i>
  <i type="int" name="NSW">    30</i>
  <i type="int" name="ISIF">     2</i>
  <i name="ENCUT">    350.00000000</i>
 </incar>
 <kpoints>
  <generation param="Monkhorst-Pack">
   <v type="int" name="divisions">       8        8        8 </v>
   <v name="usershift">      0.00000000       0.00000000       0.00000000 </v>
   <v name="genvec1">      0.12500000       0.00000000       0.00000000 </v>
   <v name="genvec2">      0.00000000       0.12500000       0.00000000 </v>
   <v name="genvec3">      0.00000000       0.00000000       0.12500000 </v>
   <v name="shift">      0.50000000       0.50000000       0.50000000 </v>
  </generation>
  <varray name="kpointlist" >
   <v>       0.06250000       0.06250000       0.06250000 </v>
   <v>       0.18750000       0.06250000       0.06250000 </v>
   <v>       0.31250000       0.06250000       0.06250000 </v>
   <v>       0.43750000       0.06250000       0.06250000 </v>
   <v>      -0.43750000       0.06250000       0.06250000 </v>
   <v>      -0.31250000       0.06250000       0.06250000 </v>
   <v>      -0.18750000       0.06250000       0.06250000 </v>
   <v>      -0.06250000       0.06250000       0.06250000 </v>
   <v>       0.18750000       0.18750000       0.06250000 </v>
   <v>       0.31250000       0.18750000       0.06250000 </v>
   <v>       0.43750000       0.18750000       0.06250000 </v>
   <v>      -0.43750000       0.18750000       0.06250000 </v>
   <v>      -0.31250000       0.18750000       0.06250000 </v>
   <v>      -0.18750000       0.18750000       0.06250000 </v>
   <v>      -0.06250000       0.18750000       0.06250000 </v>
   <v>       0.31250000       0.31250000       0.06250000 </v>
   <v>       0.43750000       0.31250000       0.06250000 </v>
   <v>      -0.43750000       0.31250000       0.06250000 </v>
   <v>      -0.31250000       0.31250000       0.06250000 </v>
   <v>      -0.18750000       0.31250000       0.06250000 </v>
   <v>      -0.06250000       0.31250000       0.06250000 </v>
   <v>       0.43750000       0.43750000       0.06250000 </v>
   <v>      -0.43750000       0.43750000       0.06250000 </v>
   <v>      -0.31250000       0.43750000       0.06250000 </v>
   <v>      -0.18750000       0.43750000       0.06250000 </v>
   <v>      -0.06250000       0.43750000       0.06250000 </v>
   <v>      -0.43750000      -0.43750000       0.06250000 </v>
   <v>      -0.31250000      -0.43750000       0.06250000 </v>
   <v>      -0.18750000      -0.43750000       0.06250000 </v>
   <v>      -0.31250000      -0.31250000       0.06250000 </v>
   <v>      -0.18750000      -0.31250000       0.06250000 </v>
   <v>      -0.18750000      -0.18750000       0.06250000 </v>
   <v>       0.18750000       0.18750000       0.18750000 </v>
   <v>       0.31250000       0.18750000       0.18750000 </v>
   <v>       0.43750000       0.18750000       0.18750000 </v>
   <v>      -0.43750000       0.18750000       0.18750000 </v>
   <v>      -0.31250000       0.18750000       0.18750000 </v>
   <v>      -0.18750000       0.18750000       0.18750000 </v>
   <v>       0.31250000       0.31250000       0.18750000 </v>
   <v>       0.43750000       0.31250000       0.18750000 </v>
   <v>      -0.43750000       0.31250000       0.18750000 </v>
   <v>      -0.31250000       0.31250000       0.18750000 </v>
   <v>      -0.18750000       0.31250000       0.18750000 </v>
   <v>       0.43750000       0.43750000       0.18750000 </v>
   <v>      -0.43750000       0.43750000       0.18750000 </v>
   <v>      -0.31250000       0.43750000       0.18750000 </v>
   <v>      -0.18750000       0.43750000       0.18750000 </v>
   <v>      -0.43750000      -0.43750000       0.18750000 </v>
   <v>      -0.31250000      -0.43750000       0.18750000 </v>
   <v>      -0.31250000      -0.31250000       0.18750000 </v>
   <v>       0.31250000       0.31250000       0.31250000 </v>
   <v>       0.43750000       0.31250000       0.31250000 </v>
   <v>      -0.43750000       0.31250000       0.31250000 </v>
   <v>      -0.31250000       0.31250000       0.31250000 </v>
   <v>       0.43750000       0.43750000       0.31250000 </v>
   <v>      -0.43750000       0.43750000       0.31250000 </v>
   <v>      -0.31250000       0.43750000       0.31250000 </v>
   <v>      -0.43750000      -0.43750000       0.31250000 </v>
   <v>       0.43750000       0.43750000       0.43750000 </v>
   <v>      -0.43750000       0.43750000       0.43750000 </v>
  </varray>
  <varray name="weights" >
   <v>       0.00390625 </v>
   <v>       0.01171875 </v>
   <v>       0.01171875 </v>
   <v>       0.01171875 </v>
   <v>       0.01171875 </v>
   <v>       0.01171875 </v>
   <v>       0.01171875 </v>
   <v>       0.01171875 </v>
   <v>       0.01171875 </v>
   <v>       0.02343750 </v>
   <v>       0.02343750 </v>
   <v>       0.02343750 </v>
   <v>       0.02343750 </v>
   <v>       0.02343750 </v>
   <v>       0.02343750 </v>
   <v>       0.01171875 </v>
   <v>       0.02343750 </v>
   <v>       0.02343750 </v>
   <v>       0.02343750 </v>
   <v>       0.02343750 </v>
   <v>       0.02343750 </v>
   <v>       0.01171875 </v>
   <v>       0.02343750 </v>
   <v>       0.02343750 </v>
   <v>       0.02343750 </v>
   <v>       0.02343750 </v>
   <v>       0.01171875 </v>
   <v>       0.02343750 </v>
   <v>       0.02343750 </v>
   <v>       0.01171875 </v>
   <v>       0.02343750 </v>
   <v>       0.01171875 </v>
   <v>       0.00390625 </v>
   <v>       0.01171875 </v>
   <v>       0.01171875 </v>
   <v>       0.01171875 </v>
   <v>       0.01171875 </v>
   <v>       0.01171875 </v>
   <v>       0.01171875 </v>
   <v>       0.02343750 </v>
   <v>       0.02343750 </v>
   <v>       0.02343750 </v>
   <v>       0.02343750 </v>
   <v>       0.01171875 </v>
   <v>       0.02343750 </v>
   <v>       0.02343750 </v>
   <v>       0.02343750 </v>
   <v>       0.01171875 </v>
   <v>       0.02343750 </v>
   <v>       0.01171875 </v>
   <v>       0.00390625 </v>
   <v>       0.01171875 </v>
   <v>       0.01171875 </v>
   <v>       0.01171875 </v>
   <v>       0.01171875 </v>
   <v>       0.02343750 </v>
   <v>       0.02343750 </v>
   <v>       0.01171875 </v>
   <v>       0.00390625 </v>
   <v>       0.01171875 </v>
  </varray>
 </kpoints>
 <parameters>
  <separator name="general" >
   <i type="string" name="SYSTEM">unknown system</i>
   <i type="logical" name="LCOMPAT"> F  </i>
  </separator>
  <separator name="electronic" >
   <i type="string" name="PREC">normal</i>
   <i name="ENMAX">    350.00000000</i>
   <i name="ENAUG">    412.49600000</i>
   <i name="EDIFF">      0.00010000</i>
   <i type="int" name="IALGO">    38</i>
   <i type="int" name="IWAVPR">    11</i>
   <i type="int" name="NBANDS">     9</i>
   <i name="NELECT">     11.00000000</i>
   <i type="int" name="TURBO">     0</i>
   <i type="int" name="IRESTART">     0</i>
   <i type="int" name="NREBOOT">     0</i>
   <i type="int" name="NMIN">     0</i>
   <i name="EREF">      0.00000000</i>
   <separator name="electronic smearing" >
    <i type="int" name="ISMEAR">     1</i>
    <i name="SIGMA">      0.20000000</i>
    <i name="KSPACING">      0.50000000</i>
    <i type="logical" name="KGAMMA"> T  </i>
   </separator>
   <separator name="electronic projectors" >
    <i type="logical" name="LREAL"> F  </i>
    <v name="ROPT">      0.00000000</v>
    <i type="int" name="LMAXPAW">  -100</i>
    <i type="int" name="LMAXMIX">     2</i>
    <i type="logical" name="NLSPLINE"> F  </i>
   </separator>
   <separator name="electronic startup" >
    <i type="int" name="ISTART">     0</i>
    <i type="int" name="ICHARG">     2</i>
    <i type="int" name="INIWAV">     1</i>
   </separator>
   <separator name="electronic spin" >
    <i type="int" name="ISPIN">     1</i>
    <i type="logical" name="LNONCOLLINEAR"> F  </i>
    <v name="MAGMOM">      1.00000000</v>
    <i name="NUPDOWN">     -1.00000000</i>
    <i type="logical" name="LSORBIT"> F  </i>
    <v name="SAXIS">      0.00000000      0.00000000      1.00000000</v>
    <i type="logical" name="LSPIRAL"> F  </i>
    <v name="QSPIRAL">      0.00000000      0.00000000      0.00000000</v>
    <i type="logical" name="LZEROZ"> F  </i>
   </separator>
   <separator name="electronic exchange-correlation" >
    <i type="logical" name="LASPH"> F  </i>
    <i type="logical" name="LMETAGGA"> F  </i>
   </separator>
   <separator name="electronic convergence" >
    <i type="int" name="NELM">    60</i>
    <i type="int" name="NELMDL">    -5</i>
    <i type="int" name="NELMIN">     2</i>
    <i name="ENINI">    350.00000000</i>
    <separator name="electronic convergence detail" >
     <i type="logical" name="LDIAG"> T  </i>
     <i type="logical" name="LSUBROT"> F  </i>
     <i name="WEIMIN">      0.00100000</i>
     <i name="EBREAK">      0.00000278</i>
     <i name="DEPER">      0.30000000</i>
     <i type="int" name="NRMM">     4</i>
     <i name="TIME">      0.40000000</i>
    </separator>
   </separator>
   <separator name="electronic mixer" >
    <i name="AMIX">      0.40000000</i>
    <i name="BMIX">      1.00000000</i>
    <i name="AMIN">      0.10000000</i>
    <i name="AMIX_MAG">      1.60000000</i>
    <i name="BMIX_MAG">      1.00000000</i>
    <separator name="electronic mixer details" >
     <i type="int" name="IMIX">     4</i>
     <i type="int" name="MAXMIX">   -45</i>
     <i name="WC">    100.00000000</i>
     <i type="int" name="INIMIX">     1</i>
     <i type="int" name="MIXPRE">     1</i>
     <i type="int" name="MREMOVE">     5</i>
    </separator>
   </separator>
   <separator name="electronic dipolcorrection" >
    <i type="logical" name="LDIPOL"> F  </i>
    <i type="logical" name="LMONO"> F  </i>
    <i type="int" name="IDIPOL">     0</i>
    <i name="EPSILON">      1.00000000</i>
    <v name="DIPOL">   -100.00000000   -100.00000000   -100.00000000</v>
    <i name="EFIELD">      0.00000000</i>
   </separator>
  </separator>
  <separator name="grids" >
   <i type="int" name="NGX">    14</i>
   <i type="int" name="NGY">    14</i>
   <i type="int" name="NGZ">    14</i>
   <i type="int" name="NGXF">    28</i>
   <i type="int" name="NGYF">    28</i>
   <i type="int" name="NGZF">    28</i>
   <i type="logical" name="ADDGRID"> F  </i>
  </separator>
  <separator name="ionic" >
   <i type="int" name="NSW">    30</i>
   <i type="int" name="IBRION">     2</i>
   <i type="int" name="ISIF">     2</i>
   <i name="PSTRESS">      0.00000000</i>
   <i name="EDIFFG">      0.00100000</i>
   <i type="int" name="NFREE">     1</i>
   <i name="POTIM">      0.50000000</i>
   <i name="SMASS">     -3.00000000</i>
   <i name="SCALEE">      1.00000000</i>
  </separator>
  <separator name="ionic md" >
   <i name="TEBEG">      0.00010000</i>
   <i name="TEEND">      0.00010000</i>
   <i type="int" name="NBLOCK">     1</i>
   <i type="int" name="KBLOCK">    30</i>
   <i type="int" name="NPACO">   256</i>
   <i name="APACO">     16.00000000</i>
  </separator>
  <separator name="symmetry" >
   <i type="int" name="ISYM">     2</i>
   <i name="SYMPREC">      0.00001000</i>
  </separator>
  <separator name="dos" >
   <i type="logical" name="LORBIT"> F  </i>
   <v name="RWIGS">     -1.00000000</v>
   <i type="int" name="NEDOS">   301</i>
   <i name="EMIN">     10.00000000</i>
   <i name="EMAX">    -10.00000000</i>
   <i name="EFERMI">      0.00000000</i>
  </separator>
  <separator name="writing" >
   <i type="int" name="NWRITE">     2</i>
   <i type="logical" name="LWAVE"> T  </i>
   <i type="logical" name="LCHARG"> T  </i>
   <i type="logical" name="LPARD"> F  </i>
   <i type="logical" name="LVTOT"> F  </i>
   <i type="logical" name="LVHAR"> F  </i>
   <i type="logical" name="LELF"> F  </i>
   <i type="logical" name="LOPTICS"> F  </i>
   <v name="STM">      0.00000000      0.00000000      0.00000000      0.00000000      0.00000000      0.00000000      0.00000000</v>
  </separator>
  <separator name="performance" >
   <i type="int" name="NPAR">     1</i>
   <i type="int" name="NSIM">     4</i>
   <i type="int" name="NBLK">    -1</i>
   <i type="logical" name="LPLANE"> T  </i>
   <i type="logical" name="LSCALAPACK"> F  </i>
   <i type="logical" name="LSCAAWARE"> F  </i>
   <i type="logical" name="LSCALU"> F  </i>
   <i type="logical" name="LASYNC"> F  </i>
   <i type="logical" name="LORBITALREAL"> F  </i>
  </separator>
  <separator name="miscellaneous" >
   <i type="int" name="IDIOT">     3</i>
   <i type="logical" name="LMUSIC"> F  </i>
   <v name="POMASS">    107.86800000</v>
   <v name="DARWINR">      0.00000000</v>
   <v name="DARWINV">      1.00000000</v>
   <i type="logical" name="LCORR"> T  </i>
  </separator>
  <i type="logical" name="GGA_COMPAT"> T  </i>
  <i type="logical" name="LBERRY"> F  </i>
  <i type="int" name="ICORELEVEL">     0</i>
  <i type="logical" name="LDAU"> F  </i>
  <i type="int" name="I_CONSTRAINED_M">     0</i>
  <separator name="electronic exchange-correlation" >
   <i type="string" name="GGA">--</i>
   <i type="int" name="VOSKOWN">     0</i>
   <i type="logical" name="LHFCALC"> F  </i>
   <i type="string" name="PRECFOCK"></i>
   <i type="logical" name="LSYMGRAD"> F  </i>
   <i type="logical" name="LHFONE"> F  </i>
   <i type="logical" name="LRHFCALC"> F  </i>
   <i type="logical" name="LTHOMAS"> F  </i>
   <i type="logical" name="LMODELHF"> F  </i>
   <i name="ENCUT4O">     -1.00000000</i>
   <i type="int" name="EXXOEP">     0</i>
   <i type="int" name="FOURORBIT">     0</i>
   <i name="AEXX">      0.00000000</i>
   <i name="HFALPHA">      0.00000000</i>
   <i name="MCALPHA">      0.00000000</i>
   <i name="ALDAX">      1.00000000</i>
   <i name="AGGAX">      1.00000000</i>
   <i name="ALDAC">      1.00000000</i>
   <i name="AGGAC">      1.00000000</i>
   <i type="int" name="NKREDX">     1</i>
   <i type="int" name="NKREDY">     1</i>
   <i type="int" name="NKREDZ">     1</i>
   <i type="logical" name="SHIFTRED"> F  </i>
   <i type="logical" name="ODDONLY"> F  </i>
   <i type="logical" name="EVENONLY"> F  </i>
   <i type="int" name="LMAXFOCK">     0</i>
   <i type="int" name="NMAXFOCKAE">     0</i>
   <i type="logical" name="LFOCKAEDFT"> F  </i>
   <i name="HFSCREEN">      0.00000000</i>
   <i name="HFSCREENC">      0.00000000</i>
   <i type="int" name="NBANDSGWLOW">     0</i>
  </separator>
  <separator name="vdW DFT" >
   <i type="logical" name="LUSE_VDW"> F  </i>
   <i name="Zab_VDW">     -0.84910000</i>
   <i name="PARAM1">      0.12340000</i>
   <i name="PARAM2">      1.00000000</i>
   <i name="PARAM3">      0.00000000</i>
  </separator>
  <separator name="model GW" >
   <i type="int" name="MODEL_GW">     0</i>
   <i name="MODEL_EPS0">     12.92803293</i>
   <i name="MODEL_ALPHA">      1.00000000</i>
  </separator>
  <separator name="linear response parameters" >
   <i type="logical" name="LEPSILON"> F  </i>
   <i type="logical" name="LRPA"> F  </i>
   <i type="logical" name="LNABLA"> F  </i>
   <i type="logical" name="LVEL"> F  </i>
   <i type="int" name="KINTER">     0</i>
   <i name="CSHIFT">      0.10000000</i>
   <i name="OMEGAMAX">     -1.00000000</i>
   <i name="DEG_THRESHOLD">      0.00200000</i>
  </separator>
  <separator name="orbital magnetization" >
   <i type="logical" name="NUCIND"> F  </i>
   <v name="MAGPOS">      0.00000000      0.00000000      0.00000000</v>
   <i type="logical" name="LNICSALL"> T  </i>
   <i type="logical" name="ORBITALMAG"> F  </i>
   <i type="logical" name="LMAGBLOCH"> F  </i>
   <i type="logical" name="LCHIMAG"> F  </i>
   <i type="logical" name="LGAUGE"> T  </i>
   <i type="int" name="MAGATOM">     0</i>
   <v name="MAGDIPOL">      0.00000000      0.00000000      0.00000000</v>
   <v name="AVECCONST">      0.00000000      0.00000000      0.00000000</v>
  </separator>
  <separator name="response functions" >
   <i type="logical" name="LADDER"> F  </i>
   <i type="logical" name="LFXC"> F  </i>
   <i type="logical" name="LHARTREE"> T  </i>
   <i type="int" name="IBSE">     0</i>
   <i type="logical" name="LTCTE"> F  </i>
   <i type="logical" name="LTETE"> F  </i>
   <i type="logical" name="LTRIPLET"> F  </i>
   <i type="logical" name="LFXCEPS"> F  </i>
   <i type="logical" name="LFXHEG"> F  </i>
   <i type="logical" name="L2ORDER"> F  </i>
   <i type="logical" name="LUSEW"> F  </i>
   <i name="ENCUTGW">     -2.00000000</i>
   <i name="ENCUTGWSOFT">     -2.00000000</i>
   <i name="ENCUTLF">     -1.00000000</i>
   <i type="int" name="LMAXMP2">    -1</i>
   <i name="SCISSOR">      0.00000000</i>
   <i type="int" name="NOMEGA">     0</i>
   <i type="int" name="NOMEGAR">     0</i>
   <i type="int" name="NBANDSGW">    -1</i>
   <i type="int" name="NBANDSO">    -1</i>
   <i type="int" name="NBANDSV">    -1</i>
   <i type="int" name="NELM">     1</i>
   <i type="int" name="DIM">     3</i>
   <i type="int" name="ANTIRES">     0</i>
   <i name="OMEGAMAX">    -30.00000000</i>
   <i name="OMEGAMIN">    -30.00000000</i>
   <i name="OMEGATL">   -200.00000000</i>
   <i type="int" name="OMEGAGRID">     0</i>
   <i name="CSHIFT">     -0.10000000</i>
   <i type="logical" name="SELFENERGY"> F  </i>
   <i type="logical" name="LSPECTRAL"> F  </i>
   <i type="logical" name="ODDONLYGW"> F  </i>
   <i type="logical" name="EVENONLYGW"> F  </i>
   <i type="int" name="NKREDLFX">     1</i>
   <i type="int" name="NKREDLFY">     1</i>
   <i type="int" name="NKREDLFZ">     1</i>
   <i type="int" name="MAXMEM">  1800</i>
   <i type="int" name="TELESCOPE">     0</i>
   <i type="int" name="TAUPAR">     1</i>
  </separator>
  <separator name="External order field" >
   <i name="OFIELD_KAPPA">      0.00000000</i>
   <v name="OFIELD_K">      0.00000000      0.00000000      0.00000000</v>
   <i name="OFIELD_Q6_NEAR">      0.00000000</i>
   <i name="OFIELD_Q6_FAR">      0.00000000</i>
   <i name="OFIELD_A">      0.00000000</i>
  </separator>
 </parameters>
 <atominfo>
  <atoms>       1 </atoms>
  <types>       1 </types>
  <array name="atoms" >
   <dimension dim="1">ion</dimension>
   <field type="string">element</field>
   <field type="int">atomtype</field>
   <set>
    <rc><c>Ag</c><c>   1</c></rc>
   </set>
  </array>
  <array name="atomtypes" >
   <dimension dim="1">type</dimension>
   <field type="int">atomspertype</field>
   <field type="string">element</field>
   <field>mass</field>
   <field>valence</field>
   <field type="string">pseudopotential</field>
   <set>
    <rc><c>   1</c><c>Ag</c><c>    107.86800000</c><c>     11.00000000</c><c>  PAW_PBE Ag 02Apr2005                  </c></rc>
   </set>
  </array>
 </atominfo>
 <structure name="initialpos" >
  <crystal>
   <varray name="basis" >
    <v>       3.12343207       0.00000000       0.00000000 </v>
    <v>       1.56171604       2.70497152       0.00000000 </v>
    <v>       1.56171604       0.90165717       2.55027161 </v>
   </varray>
   <i name="volume">     21.54672154 </i>
   <varray name="rec_basis" >
    <v>       0.32016064      -0.18484483      -0.13070503 </v>
    <v>       0.00000000       0.36968966      -0.13070503 </v>
    <v>       0.00000000       0.00000000       0.39211510 </v>
   </varray>
  </crystal>
  <varray name="positions" >
   <v>       0.00000000       0.00000000       0.00000000 </v>
  </varray>
 </structure>
 <calculation>
  <scstep>
   <time name="dav">    1.02    1.02</time>
   <time name="total">    1.06    1.09</time>
   <energy>
    <i name="alphaZ">     39.47598558 </i>
    <i name="ewald">   -904.25446026 </i>
    <i name="hartreedc">   -239.37833877 </i>
    <i name="XCdc">    -10.97217075 </i>
    <i name="pawpsdc">   1003.46214933 </i>
    <i name="pawaedc">   -957.34927423 </i>
    <i name="eentropy">     -0.00067937 </i>
    <i name="bandstr">     60.90542419 </i>
    <i name="atom">   1037.24027811 </i>
    <i name="e_fr_energy">     29.12891382 </i>
    <i name="e_wo_entrp">     29.12959319 </i>
    <i name="e_0_energy">     29.12914028 </i>
   </energy>
  </scstep>
  <scstep>
   <time name="dav">    0.93    0.93</time>
   <time name="total">    0.94    0.94</time>
   <energy>
    <i name="e_fr_energy">     -2.51860633 </i>
    <i name="e_wo_entrp">     -2.51795010 </i>
    <i name="e_0_energy">     -2.51838758 </i>
   </energy>
  </scstep>
  <scstep>
   <time name="dav">    0.97    0.97</time>
   <time name="total">    0.98    0.99</time>
   <energy>
    <i name="e_fr_energy">     -2.74930036 </i>
    <i name="e_wo_entrp">     -2.74868451 </i>
    <i name="e_0_energy">     -2.74909508 </i>
   </energy>
  </scstep>
  <scstep>
   <time name="dav">    0.89    0.89</time>
   <time name="total">    0.90    0.92</time>
   <energy>
    <i name="e_fr_energy">     -2.74981934 </i>
    <i name="e_wo_entrp">     -2.74920383 </i>
    <i name="e_0_energy">     -2.74961417 </i>
   </energy>
  </scstep>
  <scstep>
   <time name="dav">    0.75    0.75</time>
   <time name="total">    0.82    0.89</time>
   <energy>
    <i name="e_fr_energy">     -2.74982351 </i>
    <i name="e_wo_entrp">     -2.74920800 </i>
    <i name="e_0_energy">     -2.74961834 </i>
   </energy>
  </scstep>
  <scstep>
   <time name="dav">    0.74    0.74</time>
   <time name="total">    0.85    0.93</time>
   <energy>
    <i name="e_fr_energy">     -2.58227289 </i>
    <i name="e_wo_entrp">     -2.58245723 </i>
    <i name="e_0_energy">     -2.58233434 </i>
   </energy>
  </scstep>
  <scstep>
   <time name="dav">    0.81    0.81</time>
   <time name="total">    0.91    0.97</time>
   <energy>
    <i name="e_fr_energy">     -2.58009855 </i>
    <i name="e_wo_entrp">     -2.58027830 </i>
    <i name="e_0_energy">     -2.58015847 </i>
   </energy>
  </scstep>
  <scstep>
   <time name="dav">    0.76    0.76</time>
   <time name="total">    0.86    0.88</time>
   <energy>
    <i name="e_fr_energy">     -2.57906700 </i>
    <i name="e_wo_entrp">     -2.57924360 </i>
    <i name="e_0_energy">     -2.57912587 </i>
   </energy>
  </scstep>
  <scstep>
   <time name="dav">    0.50    0.50</time>
   <time name="total">    0.54    0.55</time>
   <energy>
    <i name="alphaZ">     39.47598558 </i>
    <i name="ewald">   -904.25446026 </i>
    <i name="hartreedc">   -228.75794951 </i>
    <i name="XCdc">    -11.37461884 </i>
    <i name="pawpsdc">   1051.77658960 </i>
    <i name="pawaedc">  -1007.14256455 </i>
    <i name="eentropy">      0.00017825 </i>
    <i name="bandstr">     20.45747406 </i>
    <i name="atom">   1037.24027811 </i>
    <i name="e_fr_energy">     -2.57908756 </i>
    <i name="e_wo_entrp">     -2.57926581 </i>
    <i name="e_0_energy">     -2.57914698 </i>
   </energy>
  </scstep>
  <structure>
   <crystal>
    <varray name="basis" >
     <v>       3.12343207       0.00000000       0.00000000 </v>
     <v>       1.56171604       2.70497152       0.00000000 </v>
     <v>       1.56171604       0.90165717       2.55027161 </v>
    </varray>
    <i name="volume">     21.54672154 </i>
    <varray name="rec_basis" >
     <v>       0.32016064      -0.18484483      -0.13070503 </v>
     <v>       0.00000000       0.36968966      -0.13070503 </v>
     <v>       0.00000000       0.00000000       0.39211510 </v>
    </varray>
   </crystal>
   <varray name="positions" >
    <v>       0.00000000       0.00000000       0.00000000 </v>
   </varray>
  </structure>
  <varray name="forces" >
   <v>       0.00000000       0.00000000       0.00000000 </v>
  </varray>
  <varray name="stress" >
   <v>    -106.26305561       0.00000000       0.00000000 </v>
   <v>       0.00000000    -106.26305561       0.00000000 </v>
   <v>       0.00000000       0.00000000    -106.26305561 </v>
  </varray>
  <energy>
   <i name="e_fr_energy">     -2.57908756 </i>
   <i name="e_wo_entrp">     -2.57914698 </i>
   <i name="e_0_energy">      0.00017825 </i>
  </energy>
  <time name="totalsc">    8.53    8.87</time>
  <eigenvalues>
   <array>
    <dimension dim="1">band</dimension>
    <dimension dim="2">kpoint</dimension>
    <dimension dim="3">spin</dimension>
    <field>eigene</field>
    <field>occ</field>
    <set>
     <set comment="spin 1">
      <set comment="kpoint 1">
       <r>   -0.5323    1.0000 </r>
       <r>    1.4676    1.0000 </r>
       <r>    1.5071    1.0000 </r>
       <r>    1.5071    1.0000 </r>
       <r>    2.1546    1.0000 </r>
       <r>    2.1546    1.0000 </r>
       <r>   20.8143    0.0000 </r>
       <r>   22.1586    0.0000 </r>
       <r>   23.0808    0.0000 </r>
      </set>
      <set comment="kpoint 2">
       <r>   -0.0285    1.0000 </r>
       <r>    1.3898    1.0000 </r>
       <r>    1.6047    1.0000 </r>
       <r>    1.6280    1.0000 </r>
       <r>    2.0738    1.0000 </r>
       <r>    2.2181    1.0000 </r>
       <r>   18.8598    0.0000 </r>
       <r>   20.4787    0.0000 </r>
       <r>   22.5056    0.0000 </r>
      </set>
      <set comment="kpoint 3">
       <r>    0.5887    1.0000 </r>
       <r>    1.5794    1.0000 </r>
       <r>    1.6442    1.0000 </r>
       <r>    1.8788    1.0000 </r>
       <r>    2.1933    1.0000 </r>
       <r>    2.5895    1.0000 </r>
       <r>   14.3969    0.0000 </r>
       <r>   19.8722    0.0000 </r>
       <r>   21.9148    0.0000 </r>
      </set>
      <set comment="kpoint 4">
       <r>    0.5346    1.0000 </r>
       <r>    1.4975    1.0000 </r>
       <r>    1.5447    1.0000 </r>
       <r>    2.4905    1.0000 </r>
       <r>    2.5207    1.0000 </r>
       <r>    4.3183    1.0000 </r>
       <r>   10.2904    0.0000 </r>
       <r>   19.5800    0.0000 </r>
       <r>   20.8307    0.0000 </r>
      </set>
      <set comment="kpoint 5">
       <r>    0.4864    1.0000 </r>
       <r>    1.4511    1.0000 </r>
       <r>    1.5174    1.0000 </r>
       <r>    2.5531    1.0000 </r>
       <r>    2.6914    1.0000 </r>
       <r>    5.8479   -0.0354 </r>
       <r>    8.2414    0.0000 </r>
       <r>   19.8535    0.0000 </r>
       <r>   20.5665    0.0000 </r>
      </set>
      <set comment="kpoint 6">
       <r>    0.5670    1.0000 </r>
       <r>    1.5204    1.0000 </r>
       <r>    1.5913    1.0000 </r>
       <r>    2.2424    1.0000 </r>
       <r>    2.5695    1.0000 </r>
       <r>    3.5354    1.0000 </r>
       <r>   11.5821    0.0000 </r>
       <r>   20.4028    0.0000 </r>
       <r>   20.5348    0.0000 </r>
      </set>
      <set comment="kpoint 7">
       <r>    0.4754    1.0000 </r>
       <r>    1.4966    1.0000 </r>
       <r>    1.6660    1.0000 </r>
       <r>    1.6730    1.0000 </r>
       <r>    2.2204    1.0000 </r>
       <r>    2.3084    1.0000 </r>
       <r>   15.8729    0.0000 </r>
       <r>   21.0004    0.0000 </r>
       <r>   21.1280    0.0000 </r>
      </set>
      <set comment="kpoint 8">
       <r>   -0.2698    1.0000 </r>
       <r>    1.3988    1.0000 </r>
       <r>    1.5801    1.0000 </r>
       <r>    1.5808    1.0000 </r>
       <r>    2.0850    1.0000 </r>
       <r>    2.1962    1.0000 </r>
       <r>   20.2006    0.0000 </r>
       <r>   21.3612    0.0000 </r>
       <r>   22.0279    0.0000 </r>
      </set>
      <set comment="kpoint 9">
       <r>    0.2105    1.0000 </r>
       <r>    1.2604    1.0000 </r>
       <r>    1.7134    1.0000 </r>
       <r>    1.7228    1.0000 </r>
       <r>    2.0222    1.0000 </r>
       <r>    2.2738    1.0000 </r>
       <r>   19.0756    0.0000 </r>
       <r>   20.5468    0.0000 </r>
       <r>   20.8993    0.0000 </r>
      </set>
      <set comment="kpoint 10">
       <r>    0.8240    1.0000 </r>
       <r>    1.1778    1.0000 </r>
       <r>    1.6441    1.0000 </r>
       <r>    1.8972    1.0000 </r>
       <r>    2.2595    1.0000 </r>
       <r>    2.6778    1.0000 </r>
       <r>   16.2690    0.0000 </r>
       <r>   18.0956    0.0000 </r>
       <r>   20.9493    0.0000 </r>
      </set>
      <set comment="kpoint 11">
       <r>    0.7905    1.0000 </r>
       <r>    1.4218    1.0000 </r>
       <r>    1.6815    1.0000 </r>
       <r>    1.8697    1.0000 </r>
       <r>    2.5827    1.0000 </r>
       <r>    4.3180    1.0000 </r>
       <r>   11.9996    0.0000 </r>
       <r>   17.7068    0.0000 </r>
       <r>   18.8837    0.0000 </r>
      </set>
      <set comment="kpoint 12">
       <r>    0.7308    1.0000 </r>
       <r>    1.3212    1.0000 </r>
       <r>    1.7355    1.0000 </r>
       <r>    2.0754    1.0000 </r>
       <r>    2.6677    1.0000 </r>
       <r>    6.8180    0.0000 </r>
       <r>    8.5026    0.0000 </r>
       <r>   17.3443    0.0000 </r>
       <r>   18.1658    0.0000 </r>
      </set>
      <set comment="kpoint 13">
       <r>    0.8058    1.0000 </r>
       <r>    1.3738    1.0000 </r>
       <r>    1.7373    1.0000 </r>
       <r>    1.9818    1.0000 </r>
       <r>    2.4906    1.0000 </r>
       <r>    5.1487    1.0027 </r>
       <r>   10.7315    0.0000 </r>
       <r>   16.6403    0.0000 </r>
       <r>   19.4155    0.0000 </r>
      </set>
      <set comment="kpoint 14">
       <r>    0.9497    1.0000 </r>
       <r>    1.3283    1.0000 </r>
       <r>    1.5889    1.0000 </r>
       <r>    1.8861    1.0000 </r>
       <r>    2.1328    1.0000 </r>
       <r>    3.2219    1.0000 </r>
       <r>   14.8273    0.0000 </r>
       <r>   16.7594    0.0000 </r>
       <r>   21.2658    0.0000 </r>
      </set>
      <set comment="kpoint 15">
       <r>    0.3999    1.0000 </r>
       <r>    1.3015    1.0000 </r>
       <r>    1.6834    1.0000 </r>
       <r>    1.7196    1.0000 </r>
       <r>    2.0587    1.0000 </r>
       <r>    2.3571    1.0000 </r>
       <r>   17.5162    0.0000 </r>
       <r>   19.3027    0.0000 </r>
       <r>   22.2431    0.0000 </r>
      </set>
      <set comment="kpoint 16">
       <r>    0.8360    1.0000 </r>
       <r>    0.9064    1.0000 </r>
       <r>    2.0727    1.0000 </r>
       <r>    2.1527    1.0000 </r>
       <r>    2.4921    1.0000 </r>
       <r>    2.9935    1.0000 </r>
       <r>   16.6433    0.0000 </r>
       <r>   17.6422    0.0000 </r>
       <r>   18.2077    0.0000 </r>
      </set>
      <set comment="kpoint 17">
       <r>    0.7713    1.0000 </r>
       <r>    0.8831    1.0000 </r>
       <r>    2.0110    1.0000 </r>
       <r>    2.3522    1.0000 </r>
       <r>    2.6094    1.0000 </r>
       <r>    4.6972    1.0000 </r>
       <r>   14.1651    0.0000 </r>
       <r>   15.6742    0.0000 </r>
       <r>   16.1182    0.0000 </r>
      </set>
      <set comment="kpoint 18">
       <r>    0.7898    1.0000 </r>
       <r>    1.1049    1.0000 </r>
       <r>    1.8361    1.0000 </r>
       <r>    2.1874    1.0000 </r>
       <r>    2.7023    1.0000 </r>
       <r>    7.3004    0.0000 </r>
       <r>   10.4613    0.0000 </r>
       <r>   13.9317    0.0000 </r>
       <r>   16.2983    0.0000 </r>
      </set>
      <set comment="kpoint 19">
       <r>    0.9858    1.0000 </r>
       <r>    1.3380    1.0000 </r>
       <r>    1.5814    1.0000 </r>
       <r>    2.0724    1.0000 </r>
       <r>    2.4998    1.0000 </r>
       <r>    7.3796    0.0000 </r>
       <r>   10.6045    0.0000 </r>
       <r>   12.7996    0.0000 </r>
       <r>   17.5263    0.0000 </r>
      </set>
      <set comment="kpoint 20">
       <r>    1.0902    1.0000 </r>
       <r>    1.3169    1.0000 </r>
       <r>    1.5724    1.0000 </r>
       <r>    1.9953    1.0000 </r>
       <r>    2.2853    1.0000 </r>
       <r>    4.9973    1.0001 </r>
       <r>   12.5119    0.0000 </r>
       <r>   14.5053    0.0000 </r>
       <r>   19.3227    0.0000 </r>
      </set>
      <set comment="kpoint 21">
       <r>    0.7047    1.0000 </r>
       <r>    1.5291    1.0000 </r>
       <r>    1.6815    1.0000 </r>
       <r>    1.8560    1.0000 </r>
       <r>    2.3965    1.0000 </r>
       <r>    3.2514    1.0000 </r>
       <r>   13.1029    0.0000 </r>
       <r>   18.7425    0.0000 </r>
       <r>   21.0620    0.0000 </r>
      </set>
      <set comment="kpoint 22">
       <r>    0.5588    1.0000 </r>
       <r>    0.6046    1.0000 </r>
       <r>    2.5506    1.0000 </r>
       <r>    2.5993    1.0000 </r>
       <r>    2.7202    1.0000 </r>
       <r>    5.7584    0.0233 </r>
       <r>   13.0024    0.0000 </r>
       <r>   14.9432    0.0000 </r>
       <r>   15.6782    0.0000 </r>
      </set>
      <set comment="kpoint 23">
       <r>    0.5712    1.0000 </r>
       <r>    0.6568    1.0000 </r>
       <r>    2.4219    1.0000 </r>
       <r>    2.5488    1.0000 </r>
       <r>    2.7940    1.0000 </r>
       <r>    7.7414    0.0000 </r>
       <r>   11.1570    0.0000 </r>
       <r>   13.3398    0.0000 </r>
       <r>   14.9159    0.0000 </r>
      </set>
      <set comment="kpoint 24">
       <r>    0.7527    1.0000 </r>
       <r>    1.0354    1.0000 </r>
       <r>    1.9296    1.0000 </r>
       <r>    2.2922    1.0000 </r>
       <r>    2.6863    1.0000 </r>
       <r>    8.9873    0.0000 </r>
       <r>   10.1012    0.0000 </r>
       <r>   11.8619    0.0000 </r>
       <r>   15.9839    0.0000 </r>
      </set>
      <set comment="kpoint 25">
       <r>    0.8958    1.0000 </r>
       <r>    1.2597    1.0000 </r>
       <r>    1.8260    1.0000 </r>
       <r>    1.9119    1.0000 </r>
       <r>    2.6026    1.0000 </r>
       <r>    7.5489    0.0000 </r>
       <r>    8.8746    0.0000 </r>
       <r>   15.0058    0.0000 </r>
       <r>   17.7393    0.0000 </r>
      </set>
      <set comment="kpoint 26">
       <r>    0.5957    1.0000 </r>
       <r>    1.4183    1.0000 </r>
       <r>    1.6033    1.0000 </r>
       <r>    2.3099    1.0000 </r>
       <r>    2.6441    1.0000 </r>
       <r>    5.4634    0.9677 </r>
       <r>    9.2435    0.0000 </r>
       <r>   18.7839    0.0000 </r>
       <r>   19.6214    0.0000 </r>
      </set>
      <set comment="kpoint 27">
       <r>    0.4707    1.0000 </r>
       <r>    0.5353    1.0000 </r>
       <r>    2.6296    1.0000 </r>
       <r>    2.7319    1.0000 </r>
       <r>    2.8013    1.0000 </r>
       <r>    7.2309    0.0000 </r>
       <r>   11.0770    0.0000 </r>
       <r>   14.5301    0.0000 </r>
       <r>   15.2472    0.0000 </r>
      </set>
      <set comment="kpoint 28">
       <r>    0.6499    1.0000 </r>
       <r>    0.7316    1.0000 </r>
       <r>    2.2479    1.0000 </r>
       <r>    2.5176    1.0000 </r>
       <r>    2.7140    1.0000 </r>
       <r>    6.2198   -0.0001 </r>
       <r>   12.9520    0.0000 </r>
       <r>   13.8751    0.0000 </r>
       <r>   15.3021    0.0000 </r>
      </set>
      <set comment="kpoint 29">
       <r>    0.8171    1.0000 </r>
       <r>    1.2480    1.0000 </r>
       <r>    1.7244    1.0000 </r>
       <r>    2.0253    1.0000 </r>
       <r>    2.6796    1.0000 </r>
       <r>    5.6898    0.1841 </r>
       <r>   11.1064    0.0000 </r>
       <r>   16.3039    0.0000 </r>
       <r>   16.9319    0.0000 </r>
      </set>
      <set comment="kpoint 30">
       <r>    0.7018    1.0000 </r>
       <r>    0.7400    1.0000 </r>
       <r>    2.3652    1.0000 </r>
       <r>    2.3802    1.0000 </r>
       <r>    2.6085    1.0000 </r>
       <r>    4.2344    1.0000 </r>
       <r>   15.3278    0.0000 </r>
       <r>   15.8302    0.0000 </r>
       <r>   16.4989    0.0000 </r>
      </set>
      <set comment="kpoint 31">
       <r>    0.8921    1.0000 </r>
       <r>    1.0597    1.0000 </r>
       <r>    1.7577    1.0000 </r>
       <r>    2.1203    1.0000 </r>
       <r>    2.4693    1.0000 </r>
       <r>    3.4610    1.0000 </r>
       <r>   15.1477    0.0000 </r>
       <r>   16.9394    0.0000 </r>
       <r>   18.3921    0.0000 </r>
      </set>
      <set comment="kpoint 32">
       <r>    0.7137    1.0000 </r>
       <r>    1.0848    1.0000 </r>
       <r>    1.8196    1.0000 </r>
       <r>    1.9210    1.0000 </r>
       <r>    2.2490    1.0000 </r>
       <r>    2.3769    1.0000 </r>
       <r>   17.8386    0.0000 </r>
       <r>   19.0261    0.0000 </r>
       <r>   20.4748    0.0000 </r>
      </set>
      <set comment="kpoint 33">
       <r>    0.1653    1.0000 </r>
       <r>    1.4755    1.0000 </r>
       <r>    1.6170    1.0000 </r>
       <r>    1.6170    1.0000 </r>
       <r>    2.1639    1.0000 </r>
       <r>    2.1639    1.0000 </r>
       <r>   17.3005    0.0000 </r>
       <r>   21.4252    0.0000 </r>
       <r>   22.7070    0.0000 </r>
      </set>
      <set comment="kpoint 34">
       <r>    0.6999    1.0000 </r>
       <r>    1.3317    1.0000 </r>
       <r>    1.6995    1.0000 </r>
       <r>    1.7606    1.0000 </r>
       <r>    1.9998    1.0000 </r>
       <r>    2.6642    1.0000 </r>
       <r>   16.0900    0.0000 </r>
       <r>   17.9744    0.0000 </r>
       <r>   22.8234    0.0000 </r>
      </set>
      <set comment="kpoint 35">
       <r>    1.0303    1.0000 </r>
       <r>    1.3596    1.0000 </r>
       <r>    1.7116    1.0000 </r>
       <r>    1.8487    1.0000 </r>
       <r>    2.1132    1.0000 </r>
       <r>    3.9735    1.0000 </r>
       <r>   13.5719    0.0000 </r>
       <r>   15.5413    0.0000 </r>
       <r>   21.5699    0.0000 </r>
      </set>
      <set comment="kpoint 36">
       <r>    0.8369    1.0000 </r>
       <r>    1.3319    1.0000 </r>
       <r>    1.7815    1.0000 </r>
       <r>    1.9864    1.0000 </r>
       <r>    2.5059    1.0000 </r>
       <r>    6.2297   -0.0001 </r>
       <r>    9.6828    0.0000 </r>
       <r>   15.7174    0.0000 </r>
       <r>   19.7825    0.0000 </r>
      </set>
      <set comment="kpoint 37">
       <r>    0.7536    1.0000 </r>
       <r>    1.3221    1.0000 </r>
       <r>    1.8204    1.0000 </r>
       <r>    1.9066    1.0000 </r>
       <r>    2.7111    1.0000 </r>
       <r>    6.1984   -0.0001 </r>
       <r>    9.6151    0.0000 </r>
       <r>   16.7567    0.0000 </r>
       <r>   18.4865    0.0000 </r>
      </set>
      <set comment="kpoint 38">
       <r>    0.8090    1.0000 </r>
       <r>    1.2890    1.0000 </r>
       <r>    1.6998    1.0000 </r>
       <r>    1.9169    1.0000 </r>
       <r>    2.6101    1.0000 </r>
       <r>    3.7408    1.0000 </r>
       <r>   13.4815    0.0000 </r>
       <r>   18.2727    0.0000 </r>
       <r>   18.5478    0.0000 </r>
      </set>
      <set comment="kpoint 39">
       <r>    0.7359    1.0000 </r>
       <r>    1.4721    1.0000 </r>
       <r>    1.5946    1.0000 </r>
       <r>    1.7662    1.0000 </r>
       <r>    2.4678    1.0000 </r>
       <r>    2.7590    1.0000 </r>
       <r>   14.5957    0.0000 </r>
       <r>   19.6053    0.0000 </r>
       <r>   20.4680    0.0000 </r>
      </set>
      <set comment="kpoint 40">
       <r>    1.0020    1.0000 </r>
       <r>    1.3104    1.0000 </r>
       <r>    1.4699    1.0000 </r>
       <r>    2.0857    1.0000 </r>
       <r>    2.3569    1.0000 </r>
       <r>    4.1412    1.0000 </r>
       <r>   13.7400    0.0000 </r>
       <r>   15.6849    0.0000 </r>
       <r>   18.7581    0.0000 </r>
      </set>
      <set comment="kpoint 41">
       <r>    1.1391    1.0000 </r>
       <r>    1.1991    1.0000 </r>
       <r>    1.4655    1.0000 </r>
       <r>    2.1433    1.0000 </r>
       <r>    2.4892    1.0000 </r>
       <r>    6.3102    0.0000 </r>
       <r>   11.6549    0.0000 </r>
       <r>   13.6818    0.0000 </r>
       <r>   16.8364    0.0000 </r>
      </set>
      <set comment="kpoint 42">
       <r>    0.9832    1.0000 </r>
       <r>    1.1753    1.0000 </r>
       <r>    1.6407    1.0000 </r>
       <r>    2.0844    1.0000 </r>
       <r>    2.6604    1.0000 </r>
       <r>    8.1642    0.0000 </r>
       <r>    9.2568    0.0000 </r>
       <r>   14.4321    0.0000 </r>
       <r>   15.5586    0.0000 </r>
      </set>
      <set comment="kpoint 43">
       <r>    0.9282    1.0000 </r>
       <r>    1.1015    1.0000 </r>
       <r>    1.6377    1.0000 </r>
       <r>    2.2814    1.0000 </r>
       <r>    2.5341    1.0000 </r>
       <r>    5.4175    1.0195 </r>
       <r>   12.8439    0.0000 </r>
       <r>   14.7648    0.0000 </r>
       <r>   16.2718    0.0000 </r>
      </set>
      <set comment="kpoint 44">
       <r>    0.7547    1.0000 </r>
       <r>    1.0663    1.0000 </r>
       <r>    1.9299    1.0000 </r>
       <r>    2.1017    1.0000 </r>
       <r>    2.7078    1.0000 </r>
       <r>    5.0564    1.0003 </r>
       <r>   12.5547    0.0000 </r>
       <r>   15.9794    0.0000 </r>
       <r>   17.2043    0.0000 </r>
      </set>
      <set comment="kpoint 45">
       <r>    0.8304    1.0000 </r>
       <r>    0.9430    1.0000 </r>
       <r>    1.8371    1.0000 </r>
       <r>    2.3786    1.0000 </r>
       <r>    2.6865    1.0000 </r>
       <r>    6.9665    0.0000 </r>
       <r>   12.1418    0.0000 </r>
       <r>   13.5804    0.0000 </r>
       <r>   14.4958    0.0000 </r>
      </set>
      <set comment="kpoint 46">
       <r>    0.9415    1.0000 </r>
       <r>    1.1620    1.0000 </r>
       <r>    1.5466    1.0000 </r>
       <r>    2.2162    1.0000 </r>
       <r>    2.7910    1.0000 </r>
       <r>    9.5936    0.0000 </r>
       <r>   10.6660    0.0000 </r>
       <r>   11.9387    0.0000 </r>
       <r>   13.2819    0.0000 </r>
      </set>
      <set comment="kpoint 47">
       <r>    1.0355    1.0000 </r>
       <r>    1.1668    1.0000 </r>
       <r>    1.4889    1.0000 </r>
       <r>    2.2112    1.0000 </r>
       <r>    2.6736    1.0000 </r>
       <r>    7.8806    0.0000 </r>
       <r>   11.0300    0.0000 </r>
       <r>   13.0284    0.0000 </r>
       <r>   14.5604    0.0000 </r>
      </set>
      <set comment="kpoint 48">
       <r>    0.6143    1.0000 </r>
       <r>    0.8142    1.0000 </r>
       <r>    2.2737    1.0000 </r>
       <r>    2.4304    1.0000 </r>
       <r>    2.7279    1.0000 </r>
       <r>    8.2013    0.0000 </r>
       <r>   11.0547    0.0000 </r>
       <r>   12.0145    0.0000 </r>
       <r>   16.0695    0.0000 </r>
      </set>
      <set comment="kpoint 49">
       <r>    0.7552    1.0000 </r>
       <r>    0.8744    1.0000 </r>
       <r>    1.9888    1.0000 </r>
       <r>    2.3738    1.0000 </r>
       <r>    2.7916    1.0000 </r>
       <r>    8.5873    0.0000 </r>
       <r>   11.2382    0.0000 </r>
       <r>   12.2350    0.0000 </r>
       <r>   14.0332    0.0000 </r>
      </set>
      <set comment="kpoint 50">
       <r>    0.6720    1.0000 </r>
       <r>    0.8986    1.0000 </r>
       <r>    2.1452    1.0000 </r>
       <r>    2.2898    1.0000 </r>
       <r>    2.7438    1.0000 </r>
       <r>    6.6182    0.0000 </r>
       <r>   11.8342    0.0000 </r>
       <r>   13.6081    0.0000 </r>
       <r>   16.4558    0.0000 </r>
      </set>
      <set comment="kpoint 51">
       <r>    0.5390    1.0000 </r>
       <r>    1.5815    1.0000 </r>
       <r>    1.5815    1.0000 </r>
       <r>    2.3973    1.0000 </r>
       <r>    2.3973    1.0000 </r>
       <r>    2.6057    1.0000 </r>
       <r>   12.8881    0.0000 </r>
       <r>   20.8407    0.0000 </r>
       <r>   21.9157    0.0000 </r>
      </set>
      <set comment="kpoint 52">
       <r>    0.7315    1.0000 </r>
       <r>    1.4721    1.0000 </r>
       <r>    1.6720    1.0000 </r>
       <r>    2.0844    1.0000 </r>
       <r>    2.3281    1.0000 </r>
       <r>    4.0489    1.0000 </r>
       <r>   11.8128    0.0000 </r>
       <r>   17.6090    0.0000 </r>
       <r>   21.2097    0.0000 </r>
      </set>
      <set comment="kpoint 53">
       <r>    1.0388    1.0000 </r>
       <r>    1.3589    1.0000 </r>
       <r>    1.6607    1.0000 </r>
       <r>    1.9525    1.0000 </r>
       <r>    2.3471    1.0000 </r>
       <r>    6.0668   -0.0028 </r>
       <r>   11.4670    0.0000 </r>
       <r>   13.5276    0.0000 </r>
       <r>   19.6107    0.0000 </r>
      </set>
      <set comment="kpoint 54">
       <r>    0.8289    1.0000 </r>
       <r>    1.2401    1.0000 </r>
       <r>    1.7747    1.0000 </r>
       <r>    2.1646    1.0000 </r>
       <r>    2.5682    1.0000 </r>
       <r>    8.6491    0.0000 </r>
       <r>    9.6958    0.0000 </r>
       <r>   12.1879    0.0000 </r>
       <r>   17.5812    0.0000 </r>
      </set>
      <set comment="kpoint 55">
       <r>    0.6518    1.0000 </r>
       <r>    1.4269    1.0000 </r>
       <r>    1.6749    1.0000 </r>
       <r>    2.0557    1.0000 </r>
       <r>    2.6806    1.0000 </r>
       <r>    4.7459    1.0000 </r>
       <r>   10.4863    0.0000 </r>
       <r>   19.1543    0.0000 </r>
       <r>   19.3777    0.0000 </r>
      </set>
      <set comment="kpoint 56">
       <r>    0.9100    1.0000 </r>
       <r>    1.2470    1.0000 </r>
       <r>    1.7448    1.0000 </r>
       <r>    1.9605    1.0000 </r>
       <r>    2.6108    1.0000 </r>
       <r>    6.5323    0.0000 </r>
       <r>    9.8702    0.0000 </r>
       <r>   15.8403    0.0000 </r>
       <r>   17.0383    0.0000 </r>
      </set>
      <set comment="kpoint 57">
       <r>    0.9607    1.0000 </r>
       <r>    1.2242    1.0000 </r>
       <r>    1.5580    1.0000 </r>
       <r>    2.1719    1.0000 </r>
       <r>    2.6724    1.0000 </r>
       <r>    8.9281    0.0000 </r>
       <r>    9.9639    0.0000 </r>
       <r>   12.3173    0.0000 </r>
       <r>   15.2394    0.0000 </r>
      </set>
      <set comment="kpoint 58">
       <r>    0.8185    1.0000 </r>
       <r>    1.2535    1.0000 </r>
       <r>    1.8147    1.0000 </r>
       <r>    2.0026    1.0000 </r>
       <r>    2.6605    1.0000 </r>
       <r>    7.8651    0.0000 </r>
       <r>    9.0041    0.0000 </r>
       <r>   14.3619    0.0000 </r>
       <r>   17.8841    0.0000 </r>
      </set>
      <set comment="kpoint 59">
       <r>    0.4534    1.0000 </r>
       <r>    1.4909    1.0000 </r>
       <r>    1.4909    1.0000 </r>
       <r>    2.6502    1.0000 </r>
       <r>    2.6502    1.0000 </r>
       <r>    4.9527    1.0000 </r>
       <r>    9.0589    0.0000 </r>
       <r>   20.2349    0.0000 </r>
       <r>   21.1788    0.0000 </r>
      </set>
      <set comment="kpoint 60">
       <r>    0.6231    1.0000 </r>
       <r>    1.3878    1.0000 </r>
       <r>    1.6204    1.0000 </r>
       <r>    2.3068    1.0000 </r>
       <r>    2.6382    1.0000 </r>
       <r>    6.3738    0.0000 </r>
       <r>    8.3717    0.0000 </r>
       <r>   17.9715    0.0000 </r>
       <r>   20.1234    0.0000 </r>
      </set>
     </set>
    </set>
   </array>
  </eigenvalues>
  <separator name="orbital magnetization" >
   <v name="MAGDIPOLOUT">      0.00000000      0.00000000      0.00000000</v>
  </separator>
  <dos>
   <i name="efermi">      5.60801241 </i>
   <total>
    <array>
     <dimension dim="1">gridpoints</dimension>
     <dimension dim="2">spin</dimension>
     <field>energy</field>
     <field>total</field>
     <field>integrated</field>
     <set>
      <set comment="spin 1">
       <r>    -2.5323     0.0000     0.0000 </r>
       <r>    -2.4403     0.0000     0.0000 </r>
       <r>    -2.3482     0.0000     0.0000 </r>
       <r>    -2.2562     0.0000     0.0000 </r>
       <r>    -2.1642     0.0000     0.0000 </r>
       <r>    -2.0721     0.0000     0.0000 </r>
       <r>    -1.9801     0.0000     0.0000 </r>
       <r>    -1.8880     0.0000     0.0000 </r>
       <r>    -1.7960     0.0000     0.0000 </r>
       <r>    -1.7039     0.0000     0.0000 </r>
       <r>    -1.6119     0.0000     0.0000 </r>
       <r>    -1.5198     0.0000     0.0000 </r>
       <r>    -1.4278     0.0000     0.0000 </r>
       <r>    -1.3358     0.0000     0.0000 </r>
       <r>    -1.2437     0.0000     0.0000 </r>
       <r>    -1.1517     0.0000     0.0000 </r>
       <r>    -1.0596     0.0000     0.0000 </r>
       <r>    -0.9676    -0.0003     0.0000 </r>
       <r>    -0.8755    -0.0012    -0.0001 </r>
       <r>    -0.7835    -0.0017    -0.0003 </r>
       <r>    -0.6915     0.0027     0.0000 </r>
       <r>    -0.5994     0.0149     0.0013 </r>
       <r>    -0.5074     0.0275     0.0039 </r>
       <r>    -0.4153     0.0410     0.0076 </r>
       <r>    -0.3233     0.0689     0.0140 </r>
       <r>    -0.2312     0.0951     0.0227 </r>
       <r>    -0.1392     0.0980     0.0317 </r>
       <r>    -0.0471     0.0966     0.0406 </r>
       <r>     0.0449     0.0985     0.0497 </r>
       <r>     0.1369     0.0924     0.0582 </r>
       <r>     0.2290     0.0839     0.0659 </r>
       <r>     0.3210     0.1362     0.0785 </r>
       <r>     0.4131     0.4115     0.1163 </r>
       <r>     0.5051     1.0546     0.2134 </r>
       <r>     0.5972     2.0758     0.4045 </r>
       <r>     0.6892     3.3460     0.7125 </r>
       <r>     0.7812     4.4654     1.1235 </r>
       <r>     0.8733     4.8729     1.5720 </r>
       <r>     0.9653     4.4721     1.9836 </r>
       <r>     1.0574     3.7950     2.3329 </r>
       <r>     1.1494     3.4412     2.6497 </r>
       <r>     1.2415     3.5717     2.9784 </r>
       <r>     1.3335     3.8559     3.3333 </r>
       <r>     1.4256     4.0653     3.7075 </r>
       <r>     1.5176     4.4841     4.1203 </r>
       <r>     1.6096     5.1676     4.5959 </r>
       <r>     1.7017     5.4782     5.1001 </r>
       <r>     1.7937     5.0619     5.5661 </r>
       <r>     1.8858     4.4736     5.9778 </r>
       <r>     1.9778     4.3201     6.3755 </r>
       <r>     2.0699     4.5273     6.7922 </r>
       <r>     2.1619     4.7095     7.2256 </r>
       <r>     2.2539     4.6865     7.6570 </r>
       <r>     2.3460     4.4572     8.0673 </r>
       <r>     2.4380     4.2329     8.4569 </r>
       <r>     2.5301     4.5297     8.8738 </r>
       <r>     2.6221     5.2845     9.3602 </r>
       <r>     2.7142     5.2684     9.8451 </r>
       <r>     2.8062     3.6707    10.1830 </r>
       <r>     2.8983     1.5120    10.3222 </r>
       <r>     2.9903     0.2181    10.3422 </r>
       <r>     3.0823    -0.0380    10.3387 </r>
       <r>     3.1744     0.1613    10.3536 </r>
       <r>     3.2664     0.3520    10.3860 </r>
       <r>     3.3585     0.3715    10.4202 </r>
       <r>     3.4505     0.3178    10.4494 </r>
       <r>     3.5426     0.2700    10.4743 </r>
       <r>     3.6346     0.1942    10.4922 </r>
       <r>     3.7266     0.1181    10.5030 </r>
       <r>     3.8187     0.0841    10.5108 </r>
       <r>     3.9107     0.1035    10.5203 </r>
       <r>     4.0028     0.1910    10.5379 </r>
       <r>     4.0948     0.3152    10.5669 </r>
       <r>     4.1869     0.4204    10.6056 </r>
       <r>     4.2789     0.4626    10.6482 </r>
       <r>     4.3710     0.3791    10.6831 </r>
       <r>     4.4630     0.1896    10.7005 </r>
       <r>     4.5550     0.0750    10.7074 </r>
       <r>     4.6471     0.1427    10.7206 </r>
       <r>     4.7391     0.2480    10.7434 </r>
       <r>     4.8312     0.2441    10.7659 </r>
       <r>     4.9232     0.2357    10.7876 </r>
       <r>     5.0153     0.3290    10.8178 </r>
       <r>     5.1073     0.3917    10.8539 </r>
       <r>     5.1993     0.3089    10.8823 </r>
       <r>     5.2914     0.2097    10.9016 </r>
       <r>     5.3834     0.2564    10.9252 </r>
       <r>     5.4755     0.3503    10.9575 </r>
       <r>     5.5675     0.3329    10.9881 </r>
       <r>     5.6596     0.2923    11.0150 </r>
       <r>     5.7516     0.3057    11.0431 </r>
       <r>     5.8436     0.2658    11.0676 </r>
       <r>     5.9357     0.1544    11.0818 </r>
       <r>     6.0277     0.1136    11.0923 </r>
       <r>     6.1198     0.2475    11.1150 </r>
       <r>     6.2118     0.4790    11.1591 </r>
       <r>     6.3039     0.5888    11.2133 </r>
       <r>     6.3959     0.4891    11.2583 </r>
       <r>     6.4880     0.3448    11.2901 </r>
       <r>     6.5800     0.2759    11.3155 </r>
       <r>     6.6720     0.2329    11.3369 </r>
       <r>     6.7641     0.2173    11.3569 </r>
       <r>     6.8561     0.2602    11.3809 </r>
       <r>     6.9482     0.2815    11.4068 </r>
       <r>     7.0402     0.2128    11.4264 </r>
       <r>     7.1323     0.1452    11.4397 </r>
       <r>     7.2243     0.2172    11.4597 </r>
       <r>     7.3163     0.3722    11.4940 </r>
       <r>     7.4084     0.4232    11.5329 </r>
       <r>     7.5004     0.3448    11.5647 </r>
       <r>     7.5925     0.2611    11.5887 </r>
       <r>     7.6845     0.2564    11.6123 </r>
       <r>     7.7766     0.3305    11.6427 </r>
       <r>     7.8686     0.3788    11.6776 </r>
       <r>     7.9607     0.3018    11.7054 </r>
       <r>     8.0527     0.2103    11.7247 </r>
       <r>     8.1447     0.2637    11.7490 </r>
       <r>     8.2368     0.3558    11.7817 </r>
       <r>     8.3288     0.3316    11.8122 </r>
       <r>     8.4209     0.2945    11.8394 </r>
       <r>     8.5129     0.3597    11.8725 </r>
       <r>     8.6050     0.4034    11.9096 </r>
       <r>     8.6970     0.3150    11.9386 </r>
       <r>     8.7890     0.2613    11.9626 </r>
       <r>     8.8811     0.4137    12.0007 </r>
       <r>     8.9731     0.5851    12.0546 </r>
       <r>     9.0652     0.5338    12.1037 </r>
       <r>     9.1572     0.3997    12.1405 </r>
       <r>     9.2493     0.3685    12.1744 </r>
       <r>     9.3413     0.3078    12.2027 </r>
       <r>     9.4334     0.1739    12.2188 </r>
       <r>     9.5254     0.1829    12.2356 </r>
       <r>     9.6174     0.3490    12.2677 </r>
       <r>     9.7095     0.4321    12.3075 </r>
       <r>     9.8015     0.3832    12.3427 </r>
       <r>     9.8936     0.3628    12.3761 </r>
       <r>     9.9856     0.3877    12.4118 </r>
       <r>    10.0777     0.3561    12.4446 </r>
       <r>    10.1697     0.2564    12.4682 </r>
       <r>    10.2617     0.1667    12.4835 </r>
       <r>    10.3538     0.1730    12.4995 </r>
       <r>    10.4458     0.2912    12.5263 </r>
       <r>    10.5379     0.4530    12.5680 </r>
       <r>    10.6299     0.5656    12.6200 </r>
       <r>    10.7220     0.5276    12.6686 </r>
       <r>    10.8140     0.3220    12.6982 </r>
       <r>    10.9061     0.1776    12.7146 </r>
       <r>    10.9981     0.3403    12.7459 </r>
       <r>    11.0901     0.6647    12.8071 </r>
       <r>    11.1822     0.7621    12.8772 </r>
       <r>    11.2742     0.5321    12.9262 </r>
       <r>    11.3663     0.2391    12.9482 </r>
       <r>    11.4583     0.1268    12.9599 </r>
       <r>    11.5504     0.1879    12.9772 </r>
       <r>    11.6424     0.2840    13.0033 </r>
       <r>    11.7344     0.3664    13.0370 </r>
       <r>    11.8265     0.5000    13.0831 </r>
       <r>    11.9185     0.6521    13.1431 </r>
       <r>    12.0106     0.6881    13.2064 </r>
       <r>    12.1026     0.6266    13.2641 </r>
       <r>    12.1947     0.5864    13.3181 </r>
       <r>    12.2867     0.5359    13.3674 </r>
       <r>    12.3788     0.4161    13.4057 </r>
       <r>    12.4708     0.3148    13.4347 </r>
       <r>    12.5628     0.2647    13.4590 </r>
       <r>    12.6549     0.2158    13.4789 </r>
       <r>    12.7469     0.2577    13.5026 </r>
       <r>    12.8390     0.4491    13.5440 </r>
       <r>    12.9310     0.6421    13.6031 </r>
       <r>    13.0231     0.6891    13.6665 </r>
       <r>    13.1151     0.5737    13.7193 </r>
       <r>    13.2071     0.4217    13.7581 </r>
       <r>    13.2992     0.3697    13.7921 </r>
       <r>    13.3912     0.3936    13.8283 </r>
       <r>    13.4833     0.4736    13.8719 </r>
       <r>    13.5753     0.6255    13.9295 </r>
       <r>    13.6674     0.7110    13.9950 </r>
       <r>    13.7594     0.6385    14.0537 </r>
       <r>    13.8515     0.5392    14.1034 </r>
       <r>    13.9435     0.5086    14.1502 </r>
       <r>    14.0355     0.4700    14.1934 </r>
       <r>    14.1276     0.3649    14.2270 </r>
       <r>    14.2196     0.2519    14.2502 </r>
       <r>    14.3117     0.2816    14.2761 </r>
       <r>    14.4037     0.5617    14.3278 </r>
       <r>    14.4958     0.8869    14.4095 </r>
       <r>    14.5878     0.8910    14.4915 </r>
       <r>    14.6798     0.6163    14.5482 </r>
       <r>    14.7719     0.4605    14.5906 </r>
       <r>    14.8639     0.5310    14.6395 </r>
       <r>    14.9560     0.5896    14.6937 </r>
       <r>    15.0480     0.5308    14.7426 </r>
       <r>    15.1401     0.5088    14.7894 </r>
       <r>    15.2321     0.5959    14.8443 </r>
       <r>    15.3242     0.5940    14.8989 </r>
       <r>    15.4162     0.4208    14.9377 </r>
       <r>    15.5082     0.3442    14.9694 </r>
       <r>    15.6003     0.5280    15.0180 </r>
       <r>    15.6923     0.7522    15.0872 </r>
       <r>    15.7844     0.7855    15.1595 </r>
       <r>    15.8764     0.6885    15.2229 </r>
       <r>    15.9685     0.6202    15.2799 </r>
       <r>    16.0605     0.6177    15.3368 </r>
       <r>    16.1525     0.6807    15.3994 </r>
       <r>    16.2446     0.8092    15.4739 </r>
       <r>    16.3366     0.8322    15.5505 </r>
       <r>    16.4287     0.6123    15.6069 </r>
       <r>    16.5207     0.3756    15.6415 </r>
       <r>    16.6128     0.3644    15.6750 </r>
       <r>    16.7048     0.5135    15.7223 </r>
       <r>    16.7969     0.6609    15.7831 </r>
       <r>    16.8889     0.7328    15.8506 </r>
       <r>    16.9809     0.6822    15.9134 </r>
       <r>    17.0730     0.4905    15.9585 </r>
       <r>    17.1650     0.2804    15.9843 </r>
       <r>    17.2571     0.2039    16.0031 </r>
       <r>    17.3491     0.2609    16.0271 </r>
       <r>    17.4412     0.4018    16.0641 </r>
       <r>    17.5332     0.6030    16.1196 </r>
       <r>    17.6252     0.7538    16.1890 </r>
       <r>    17.7173     0.7408    16.2571 </r>
       <r>    17.8093     0.5976    16.3122 </r>
       <r>    17.9014     0.4536    16.3539 </r>
       <r>    17.9934     0.4111    16.3917 </r>
       <r>    18.0855     0.4675    16.4348 </r>
       <r>    18.1775     0.5211    16.4827 </r>
       <r>    18.2696     0.4818    16.5271 </r>
       <r>    18.3616     0.3935    16.5633 </r>
       <r>    18.4536     0.3240    16.5931 </r>
       <r>    18.5457     0.2691    16.6179 </r>
       <r>    18.6377     0.3098    16.6464 </r>
       <r>    18.7298     0.5354    16.6957 </r>
       <r>    18.8218     0.7411    16.7639 </r>
       <r>    18.9139     0.6676    16.8254 </r>
       <r>    19.0059     0.4282    16.8648 </r>
       <r>    19.0979     0.2784    16.8904 </r>
       <r>    19.1900     0.3010    16.9181 </r>
       <r>    19.2820     0.4615    16.9606 </r>
       <r>    19.3741     0.6050    17.0163 </r>
       <r>    19.4661     0.5960    17.0711 </r>
       <r>    19.5582     0.5423    17.1210 </r>
       <r>    19.6502     0.5201    17.1689 </r>
       <r>    19.7423     0.4457    17.2099 </r>
       <r>    19.8343     0.3355    17.2408 </r>
       <r>    19.9263     0.2333    17.2623 </r>
       <r>    20.0184     0.1484    17.2760 </r>
       <r>    20.1104     0.1357    17.2885 </r>
       <r>    20.2025     0.1689    17.3040 </r>
       <r>    20.2945     0.1987    17.3223 </r>
       <r>    20.3866     0.3167    17.3514 </r>
       <r>    20.4786     0.5221    17.3995 </r>
       <r>    20.5706     0.5648    17.4515 </r>
       <r>    20.6627     0.3585    17.4845 </r>
       <r>    20.7547     0.1906    17.5020 </r>
       <r>    20.8468     0.2758    17.5274 </r>
       <r>    20.9388     0.4800    17.5716 </r>
       <r>    21.0309     0.5888    17.6258 </r>
       <r>    21.1229     0.5694    17.6782 </r>
       <r>    21.2150     0.5072    17.7249 </r>
       <r>    21.3070     0.4266    17.7641 </r>
       <r>    21.3990     0.3037    17.7921 </r>
       <r>    21.4911     0.1830    17.8089 </r>
       <r>    21.5831     0.1119    17.8192 </r>
       <r>    21.6752     0.0645    17.8252 </r>
       <r>    21.7672     0.0410    17.8289 </r>
       <r>    21.8593     0.0850    17.8367 </r>
       <r>    21.9513     0.1637    17.8518 </r>
       <r>    22.0433     0.1998    17.8702 </r>
       <r>    22.1354     0.2069    17.8892 </r>
       <r>    22.2274     0.2232    17.9098 </r>
       <r>    22.3195     0.2025    17.9284 </r>
       <r>    22.4115     0.1379    17.9411 </r>
       <r>    22.5036     0.0973    17.9501 </r>
       <r>    22.5956     0.0858    17.9580 </r>
       <r>    22.6876     0.0844    17.9657 </r>
       <r>    22.7797     0.1023    17.9752 </r>
       <r>    22.8717     0.1087    17.9852 </r>
       <r>    22.9638     0.0773    17.9923 </r>
       <r>    23.0558     0.0429    17.9962 </r>
       <r>    23.1479     0.0271    17.9987 </r>
       <r>    23.2399     0.0145    18.0001 </r>
       <r>    23.3320     0.0026    18.0003 </r>
       <r>    23.4240    -0.0017    18.0001 </r>
       <r>    23.5160    -0.0012    18.0000 </r>
       <r>    23.6081    -0.0003    18.0000 </r>
       <r>    23.7001     0.0000    18.0000 </r>
       <r>    23.7922     0.0000    18.0000 </r>
       <r>    23.8842     0.0000    18.0000 </r>
       <r>    23.9763     0.0000    18.0000 </r>
       <r>    24.0683     0.0000    18.0000 </r>
       <r>    24.1603     0.0000    18.0000 </r>
       <r>    24.2524     0.0000    18.0000 </r>
       <r>    24.3444     0.0000    18.0000 </r>
       <r>    24.4365     0.0000    18.0000 </r>
       <r>    24.5285     0.0000    18.0000 </r>
       <r>    24.6206     0.0000    18.0000 </r>
       <r>    24.7126     0.0000    18.0000 </r>
       <r>    24.8047     0.0000    18.0000 </r>
       <r>    24.8967     0.0000    18.0000 </r>
       <r>    24.9887     0.0000    18.0000 </r>
       <r>    25.0808     0.0000    18.0000 </r>
      </set>
     </set>
    </array>
   </total>
  </dos>
 </calculation>
 <structure name="finalpos" >
  <crystal>
   <varray name="basis" >
    <v>       3.12343207       0.00000000       0.00000000 </v>
    <v>       1.56171604       2.70497152       0.00000000 </v>
    <v>       1.56171604       0.90165717       2.55027161 </v>
   </varray>
   <i name="volume">     21.54672154 </i>
   <varray name="rec_basis" >
    <v>       0.32016064      -0.18484483      -0.13070503 </v>
    <v>       0.00000000       0.36968966      -0.13070503 </v>
    <v>       0.00000000       0.00000000       0.39211510 </v>
   </varray>
  </crystal>
  <varray name="positions" >
   <v>       0.00000000       0.00000000       0.00000000 </v>
  </varray>
 </structure>
</modeling>
