unknown system                          
           1
     3.123432    0.000000    0.000000
     1.561716    2.704972    0.000000
     1.561716    0.901657    2.550272
   Ag
   1
Direct configuration=     1
   0.00000000  0.00000000  0.00000000
