unknown system                          
   1.00000000000000     
     3.025710    0.000000    0.000000
     1.512855    2.620342    0.000000
     1.512855    0.873447    2.470482
   Pd
     1
Direct
  0.000000  0.000000  0.000000
 
   28   28   28
  124.41      119.81      107.42      90.634      72.746      55.747      40.497      27.596      17.732      11.235    
  7.5639      5.4593      4.2197      3.6115      3.4339      3.6115      4.2197      5.4593      7.5639      11.235    
  17.732      27.596      40.497      55.747      72.746      90.634      107.42      119.81      119.80      111.33    
  96.855      79.772      62.662      46.833      32.966      21.755      13.785      8.9670      6.3058      4.6939    
  3.8182      3.4508      3.4516      3.8189      4.6931      6.3051      8.9681      13.786      21.754      32.965    
  46.834      62.662      79.771      96.854      111.33      119.81      107.42      96.854      82.310      66.477    
  51.084      37.075      25.221      16.255      10.435      7.1486      5.2022      4.0611      3.5016      3.3376    
  3.5016      4.0611      5.2023      7.1486      10.435      16.255      25.221      37.075      51.084      66.477    
  82.310      96.854      107.42      111.33      90.634      79.772      66.476      52.584      39.304      27.562    
  18.211      11.752      7.9206      5.6922      4.3149      3.5743      3.2639      3.2637      3.5741      4.3152    
  5.6923      7.9201      11.752      18.211      27.562      39.304      52.584      66.477      79.772      90.633    
  96.854      96.855      72.747      62.662      51.084      39.304      28.389      19.292      12.671      8.5299    
  6.1007      4.5502      3.6553      3.2180      3.0897      3.2180      3.6553      4.5502      6.1007      8.5299    
  12.671      19.292      28.389      39.304      51.084      62.662      72.747      79.771      82.310      79.771    
  55.747      46.833      37.076      27.562      19.291      13.001      8.8704      6.3717      4.7318      3.7289    
  3.1911      2.9641      2.9636      3.1907      3.7293      4.7324      6.3715      8.8700      13.002      19.292    
  27.562      37.075      46.834      55.747      62.662      66.476      66.476      62.662      40.496      32.965    
  25.221      18.211      12.671      8.8699      6.4665      4.8320      3.7809      3.1756      2.8757      2.7868    
  2.8757      3.1756      3.7809      4.8320      6.4666      8.8699      12.671      18.211      25.221      32.965    
  40.496      46.834      51.084      52.584      51.084      46.834      27.597      21.754      16.254      11.753    
  8.5301      6.3713      4.8314      3.8001      3.1698      2.8219      2.6705      2.6711      2.8225      3.1692    
  3.7993      4.8318      6.3719      8.5299      11.752      16.255      21.755      27.596      32.965      37.076    
  39.304      39.304      37.075      32.966      17.733      13.786      10.435      7.9204      6.1010      4.7319    
  3.7806      3.1695      2.8045      2.6128      2.5532      2.6128      2.8045      3.1695      3.7806      4.7319    
  6.1010      7.9204      10.435      13.786      17.733      21.754      25.220      27.562      28.389      27.562    
  25.220      21.754      11.235      8.9676      7.1489      5.6922      4.5504      3.7292      3.1758      2.8220    
  2.6130      2.5153      2.5150      2.6126      2.8224      3.1763      3.7290      4.5499      5.6922      7.1491    
  8.9675      11.235      13.786      16.255      18.211      19.291      19.292      18.211      16.254      13.785    
  7.5632      6.3054      5.2022      4.3150      3.6553      3.1911      2.8757      2.6707      2.5535      2.5152    
  2.5535      2.6707      2.8757      3.1911      3.6553      4.3149      5.2022      6.3054      7.5632      8.9675    
  10.435      11.752      12.671      13.001      12.671      11.752      10.435      8.9675      5.4592      4.6935    
  4.0606      3.5741      3.2180      2.9639      2.7865      2.6708      2.6128      2.6128      2.6708      2.7863    
  2.9638      3.2180      3.5743      4.0608      4.6935      5.4591      6.3053      7.1490      7.9204      8.5301    
  8.8702      8.8701      8.5298      7.9202      7.1491      6.3056      4.2204      3.8187      3.5016      3.2637    
  3.0898      2.9638      2.8757      2.8223      2.8042      2.8223      2.8757      2.9638      3.0898      3.2637    
  3.5016      3.8187      4.2204      4.6935      5.2022      5.6921      6.1007      6.3717      6.4665      6.3717    
  6.1007      5.6921      5.2022      4.6935      3.6115      3.4513      3.3380      3.2638      3.2180      3.1908    
  3.1759      3.1694      3.1695      3.1761      3.1910      3.2180      3.2638      3.3379      3.4512      3.6115    
  3.8187      4.0609      4.3150      4.5500      4.7320      4.8315      4.8316      4.7322      4.5502      4.3150    
  4.0606      3.8184      3.4331      3.4512      3.5016      3.5743      3.6553      3.7291      3.7809      3.7996    
  3.7809      3.7291      3.6553      3.5743      3.5016      3.4512      3.4331      3.4512      3.5016      3.5743    
  3.6553      3.7291      3.7809      3.7996      3.7809      3.7291      3.6553      3.5743      3.5016      3.4512    
  3.6115      3.8184      4.0606      4.3150      4.5502      4.7322      4.8316      4.8315      4.7320      4.5500    
  4.3150      4.0609      3.8187      3.6115      3.4512      3.3379      3.2638      3.2180      3.1910      3.1761    
  3.1695      3.1694      3.1759      3.1908      3.2180      3.2638      3.3380      3.4513      4.2204      4.6935    
  5.2022      5.6921      6.1007      6.3717      6.4665      6.3717      6.1007      5.6921      5.2022      4.6935    
  4.2204      3.8187      3.5016      3.2637      3.0898      2.9638      2.8757      2.8223      2.8042      2.8223    
  2.8757      2.9638      3.0898      3.2637      3.5016      3.8187      5.4592      6.3056      7.1491      7.9202    
  8.5298      8.8701      8.8702      8.5301      7.9204      7.1490      6.3053      5.4591      4.6935      4.0608    
  3.5743      3.2180      2.9638      2.7863      2.6708      2.6128      2.6128      2.6708      2.7865      2.9639    
  3.2180      3.5741      4.0606      4.6935      7.5632      8.9675      10.435      11.752      12.671      13.001    
  12.671      11.752      10.435      8.9675      7.5632      6.3054      5.2022      4.3149      3.6553      3.1911    
  2.8757      2.6707      2.5535      2.5152      2.5535      2.6707      2.8757      3.1911      3.6553      4.3150    
  5.2022      6.3054      11.235      13.785      16.254      18.211      19.292      19.291      18.211      16.255    
  13.786      11.235      8.9675      7.1491      5.6922      4.5499      3.7290      3.1763      2.8224      2.6126    
  2.5150      2.5153      2.6130      2.8220      3.1758      3.7292      4.5504      5.6922      7.1489      8.9676    
  17.733      21.754      25.220      27.562      28.389      27.562      25.220      21.754      17.733      13.786    
  10.435      7.9204      6.1010      4.7319      3.7806      3.1695      2.8045      2.6128      2.5532      2.6128    
  2.8045      3.1695      3.7806      4.7319      6.1010      7.9204      10.435      13.786      27.597      32.966    
  37.075      39.304      39.304      37.076      32.965      27.596      21.755      16.255      11.752      8.5299    
  6.3719      4.8318      3.7993      3.1692      2.8225      2.6711      2.6705      2.8219      3.1698      3.8001    
  4.8314      6.3713      8.5301      11.753      16.254      21.754      40.496      46.834      51.084      52.584    
  51.084      46.834      40.496      32.965      25.221      18.211      12.671      8.8699      6.4666      4.8320    
  3.7809      3.1756      2.8757      2.7868      2.8757      3.1756      3.7809      4.8320      6.4665      8.8699    
  12.671      18.211      25.221      32.965      55.747      62.662      66.476      66.476      62.662      55.747    
  46.834      37.075      27.562      19.292      13.002      8.8700      6.3715      4.7324      3.7293      3.1907    
  2.9636      2.9641      3.1911      3.7289      4.7318      6.3717      8.8704      13.001      19.291      27.562    
  37.076      46.833      72.747      79.771      82.310      79.771      72.747      62.662      51.084      39.304    
  28.389      19.292      12.671      8.5299      6.1007      4.5502      3.6553      3.2180      3.0897      3.2180    
  3.6553      4.5502      6.1007      8.5299      12.671      19.292      28.389      39.304      51.084      62.662    
  90.634      96.855      96.854      90.633      79.772      66.477      52.584      39.304      27.562      18.211    
  11.752      7.9201      5.6923      4.3152      3.5741      3.2637      3.2639      3.5743      4.3149      5.6922    
  7.9206      11.752      18.211      27.562      39.304      52.584      66.476      79.772      107.42      111.33    
  107.42      96.854      82.310      66.477      51.084      37.075      25.221      16.255      10.435      7.1486    
  5.2023      4.0611      3.5016      3.3376      3.5016      4.0611      5.2022      7.1486      10.435      16.255    
  25.221      37.075      51.084      66.477      82.310      96.854      119.80      119.81      111.33      96.854    
  79.771      62.662      46.834      32.965      21.754      13.786      8.9681      6.3051      4.6931      3.8189    
  3.4516      3.4508      3.8182      4.6939      6.3058      8.9670      13.785      21.755      32.966      46.833    
  62.662      79.772      96.855      111.33      119.80      111.33      96.855      79.772      62.662      46.833    
  32.966      21.755      13.785      8.9670      6.3058      4.6939      3.8182      3.4508      3.4516      3.8189    
  4.6931      6.3051      8.9681      13.786      21.754      32.965      46.834      62.662      79.771      96.854    
  111.33      119.81      111.33      100.11      84.774      68.250      52.360      38.008      25.883      16.681    
  10.673      7.2772      5.2858      4.1157      3.5413      3.3728      3.5414      4.1158      5.2858      7.2772    
  10.674      16.681      25.883      38.007      52.359      68.250      84.774      100.11      111.33      115.49    
  96.855      84.774      70.235      55.343      41.336      29.031      19.193      12.330      8.2280      5.8830    
  4.4377      3.6584      3.3316      3.3312      3.6582      4.4382      5.8832      8.2274      12.329      19.194    
  29.031      41.335      55.342      70.235      84.775      96.854      103.85      103.85      79.772      68.249    
  55.343      42.498      30.728      20.895      13.650      9.0610      6.4147      4.7522      3.7876      3.3164    
  3.1784      3.3163      3.7876      4.7522      6.4147      9.0608      13.649      20.895      30.728      42.498    
  55.343      68.249      79.772      87.955      90.944      87.956      62.662      52.360      41.336      30.728    
  21.495      14.381      9.6389      6.8127      5.0170      3.9106      3.3176      3.0683      3.0680      3.3173    
  3.9108      5.0173      6.8126      9.6385      14.381      21.495      30.728      41.336      52.360      62.662    
  70.849      75.444      75.444      70.849      46.833      38.008      29.031      20.895      14.381      9.8456    
  7.0272      5.1948      4.0077      3.3253      2.9896      2.8905      2.9895      3.3253      4.0077      5.1949    
  7.0272      9.8457      14.381      20.895      29.031      38.008      46.834      54.401      59.570      61.415    
  59.570      54.401      32.966      25.883      19.193      13.650      9.6391      7.0269      5.2568      4.0617    
  3.3340      2.9372      2.7667      2.7673      2.9378      3.3334      4.0611      5.2572      7.0275      9.6387    
  13.649      19.194      25.884      32.965      39.515      44.587      47.366      47.366      44.587      39.516    
  21.755      16.681      12.329      9.0610      6.8130      5.1945      4.0611      3.3371      2.9115      2.6927    
  2.6257      2.6928      2.9115      3.3370      4.0610      5.1945      6.8131      9.0612      12.329      16.681    
  21.755      26.895      31.329      34.339      35.405      34.339      31.330      26.895      13.786      10.674    
  8.2276      6.4144      5.0172      4.0079      3.3335      2.9110      2.6679      2.5570      2.5566      2.6675    
  2.9114      3.3339      4.0075      5.0168      6.4147      8.2280      10.673      13.786      17.276      20.636    
  23.292      24.759      24.760      23.293      20.636      17.276      8.9675      7.2779      5.8833      4.7520    
  3.9107      3.3257      2.9374      2.6925      2.5567      2.5131      2.5567      2.6926      2.9375      3.3259    
  3.9108      4.7519      5.8829      7.2778      8.9676      10.977      13.113      15.035      16.374      16.854    
  16.374      15.035      13.113      10.977      6.3053      5.2859      4.4381      3.7877      3.3176      2.9896    
  2.7670      2.6260      2.5567      2.5568      2.6261      2.7669      2.9895      3.3176      3.7878      4.4380    
  5.2858      6.3053      7.4260      8.6100      9.7621      10.697      11.223      11.223      10.697      9.7621    
  8.6100      7.4258      4.6935      4.1152      3.6582      3.3164      3.0682      2.8903      2.7671      2.6928    
  2.6677      2.6927      2.7670      2.8901      3.0681      3.3164      3.6584      4.1155      4.6936      5.3708    
  6.0928      6.7805      7.3558      7.7476      7.8875      7.7475      7.3557      6.7806      6.0930      5.3709    
  3.8187      3.5413      3.3314      3.1783      3.0681      2.9896      2.9375      2.9112      2.9112      2.9376    
  2.9895      3.0680      3.1783      3.3314      3.5413      3.8186      4.1627      4.5559      4.9625      5.3341    
  5.6189      5.7735      5.7735      5.6189      5.3342      4.9625      4.5558      4.1627      3.4513      3.3734    
  3.3316      3.3163      3.3174      3.3256      3.3337      3.3369      3.3337      3.3257      3.3176      3.3164    
  3.3314      3.3732      3.4512      3.5698      3.7252      3.9042      4.0855      4.2431      4.3510      4.3896    
  4.3513      4.2433      4.0854      3.9040      3.7250      3.5697      3.4512      3.5414      3.6584      3.7878    
  3.9108      4.0077      4.0613      4.0613      4.0077      3.9108      3.7878      3.6584      3.5413      3.4512    
  3.3961      3.3768      3.3870      3.4164      3.4533      3.4862      3.5056      3.5056      3.4862      3.4533    
  3.4164      3.3870      3.3768      3.3961      3.8185      4.1152      4.4379      4.7522      5.0173      5.1946    
  5.2569      5.1945      5.0170      4.7520      4.4380      4.1155      3.8187      3.5698      3.3768      3.2357    
  3.1359      3.0664      3.0199      2.9928      2.9838      2.9927      3.0198      3.0664      3.1360      3.2358    
  3.3769      3.5698      4.6936      5.2858      5.8830      6.4145      6.8127      7.0273      7.0273      6.8127    
  6.4145      5.8830      5.2858      4.6935      4.1627      3.7252      3.3870      3.1358      2.9527      2.8216    
  2.7344      2.6903      2.6903      2.7345      2.8215      2.9526      3.1358      3.3870      3.7252      4.1627    
  6.3056      7.2778      8.2277      9.0609      9.6386      9.8459      9.6389      9.0612      8.2278      7.2776    
  6.3053      5.3708      4.5558      3.9041      3.4164      3.0665      2.8215      2.6566      2.5595      2.5272    
  2.5595      2.6567      2.8216      3.0664      3.4162      3.9039      4.5558      5.3710      8.9677      10.673    
  12.330      13.650      14.381      14.381      13.650      12.330      10.674      8.9675      7.4258      6.0929    
  4.9626      4.0854      3.4532      3.0201      2.7345      2.5594      2.4755      2.4757      2.5596      2.7344    
  3.0199      3.4534      4.0856      4.9624      6.0927      7.4260      13.786      16.681      19.194      20.895    
  21.496      20.895      19.193      16.681      13.786      10.977      8.6098      6.7805      5.3344      4.2431    
  3.4860      2.9928      2.6905      2.5271      2.4753      2.5271      2.6905      2.9927      3.4859      4.2432    
  5.3346      6.7806      8.6097      10.977      21.754      25.884      29.031      30.728      30.728      29.031    
  25.883      21.754      17.276      13.113      9.7619      7.3556      5.6191      4.3513      3.5054      2.9835    
  2.6905      2.5598      2.5593      2.6900      2.9840      3.5059      4.3508      5.6186      7.3560      9.7624    
  13.113      17.276      32.966      38.008      41.336      42.498      41.336      38.009      32.966      26.894    
  20.636      15.035      10.697      7.7472      5.7735      4.3900      3.5056      2.9923      2.7344      2.6571    
  2.7345      2.9923      3.5057      4.3900      5.7735      7.7470      10.697      15.035      20.636      26.895    
  46.833      52.359      55.343      55.343      52.359      46.834      39.516      31.330      23.292      16.374    
  11.224      7.8873      5.7733      4.3515      3.4865      3.0196      2.8213      2.8219      3.0202      3.4859    
  4.3508      5.7737      7.8879      11.223      16.373      23.293      31.330      39.515      62.662      68.249    
  70.235      68.249      62.662      54.401      44.587      34.339      24.759      16.854      11.224      7.7475    
  5.6187      4.2433      3.4535      3.0664      2.9524      3.0664      3.4535      4.2432      5.6186      7.7474    
  11.224      16.854      24.759      34.339      44.587      54.400      79.771      84.774      84.774      79.771    
  70.849      59.570      47.366      35.405      24.759      16.374      10.697      7.3557      5.3342      4.0855    
  3.4164      3.1360      3.1358      3.4162      4.0855      5.3344      7.3557      10.697      16.373      24.760    
  35.405      47.366      59.570      70.849      96.855      100.11      96.855      87.955      75.444      61.415    
  47.366      34.339      23.292      15.035      9.7621      6.7803      4.9625      3.9042      3.3870      3.2356    
  3.3870      3.9042      4.9626      6.7804      9.7621      15.035      23.292      34.339      47.366      61.416    
  75.444      87.955      111.33      111.33      103.85      90.943      75.444      59.570      44.587      31.330    
  20.636      13.113      8.6104      6.0927      4.5555      3.7253      3.3771      3.3766      3.7249      4.5562    
  6.0931      8.6096      13.113      20.637      31.330      44.586      59.570      75.445      90.944      103.85    
  119.81      115.49      103.85      87.956      70.849      54.400      39.516      26.895      17.275      10.977    
  7.4265      5.3710      4.1621      3.5698      3.3967      3.5698      4.1621      5.3710      7.4265      10.977    
  17.275      26.895      39.516      54.400      70.849      87.956      103.85      115.49      107.42      96.854    
  82.310      66.477      51.084      37.075      25.221      16.255      10.435      7.1486      5.2022      4.0611    
  3.5016      3.3376      3.5016      4.0611      5.2023      7.1486      10.435      16.255      25.221      37.075    
  51.084      66.477      82.310      96.854      107.42      111.33      96.855      84.774      70.235      55.343    
  41.336      29.031      19.193      12.330      8.2280      5.8830      4.4377      3.6584      3.3316      3.3312    
  3.6582      4.4382      5.8832      8.2274      12.329      19.194      29.031      41.335      55.342      70.235    
  84.775      96.854      103.85      103.85      82.310      70.235      56.827      43.597      31.532      21.451    
  13.994      9.2492      6.5235      4.8227      3.8338      3.3505      3.2091      3.3505      3.8338      4.8227    
  6.5235      9.2492      13.994      21.451      31.532      43.597      56.828      70.235      82.310      90.944    
  94.107      90.944      66.476      55.343      43.597      32.400      22.670      15.131      10.061      7.0476    
  5.1696      4.0081      3.3851      3.1234      3.1233      3.3849      4.0082      5.1698      7.0476      10.061    
  15.130      22.670      32.400      43.597      55.343      66.476      75.444      80.524      80.524      75.444    
  51.084      41.336      31.531      22.670      15.533      10.512      7.3972      5.4331      4.1574      3.4237    
  3.0638      2.9580      3.0638      3.4237      4.1573      5.4331      7.3971      10.512      15.533      22.670    
  31.532      41.336      51.084      59.570      65.447      67.560      65.447      59.570      37.076      29.031    
  21.451      15.131      10.513      7.5202      5.5744      4.2588      3.4575      3.0233      2.8382      2.8387    
  3.0239      3.4570      4.2582      5.5749      7.5209      10.512      15.130      21.451      29.031      37.075    
  44.587      50.475      53.733      53.732      50.474      44.587      25.221      19.194      13.994      10.061    
  7.3975      5.5747      4.2939      3.4764      3.0003      2.7587      2.6855      2.7587      3.0003      3.4764    
  4.2939      5.5747      7.3975      10.061      13.994      19.194      25.221      31.330      36.631      40.254    
  41.544      40.254      36.631      31.330      16.255      12.330      9.2489      7.0474      5.4331      4.2588    
  3.4761      2.9918      2.7184      2.5957      2.5952      2.7179      2.9923      3.4766      4.2582      5.4325    
  7.0479      9.2497      12.329      16.254      20.636      24.848      28.183      30.030      30.030      28.184    
  24.848      20.636      10.435      8.2280      6.5233      5.1693      4.1574      3.4575      3.0000      2.7179    
  2.5652      2.5169      2.5652      2.7179      3.0000      3.4575      4.1573      5.1693      6.5233      8.2280    
  10.435      13.113      15.965      18.528      20.314      20.954      20.314      18.528      15.965      13.113    
  7.1490      5.8833      4.8228      4.0080      3.4238      3.0236      2.7588      2.5954      2.5166      2.5167    
  2.5955      2.7587      3.0236      3.4241      4.0082      4.8225      5.8829      7.1490      8.6101      10.248    
  11.877      13.207      13.958      13.958      13.207      11.877      10.248      8.6099      5.2022      4.4380    
  3.8340      3.3851      3.0638      2.8384      2.6858      2.5954      2.5652      2.5954      2.6858      2.8384    
  3.0638      3.3851      3.8340      4.4380      5.2022      6.0928      7.0344      7.9571      8.7743      9.3480    
  9.5553      9.3480      8.7743      7.9571      7.0344      6.0928      4.0606      3.6582      3.3505      3.1234    
  2.9578      2.8385      2.7587      2.7181      2.7182      2.7588      2.8384      2.9575      3.1233      3.3506    
  3.6584      4.0608      4.5559      5.1173      5.6933      6.2152      6.6117      6.8261      6.8260      6.6117    
  6.2154      5.6936      5.1174      4.5558      3.5016      3.3314      3.2089      3.1232      3.0638      3.0237    
  3.0000      2.9920      3.0000      3.0237      3.0638      3.1232      3.2089      3.3314      3.5016      3.7252    
  3.9972      4.2987      4.5976      4.8537      5.0273      5.0887      5.0273      4.8538      4.5977      4.2987    
  3.9972      3.7252      3.3380      3.3315      3.3505      3.3849      3.4238      3.4572      3.4764      3.4764    
  3.4572      3.4240      3.3851      3.3506      3.3313      3.3378      3.3768      3.4495      3.5498      3.6653    
  3.7784      3.8694      3.9204      3.9205      3.8696      3.7784      3.6651      3.5496      3.4494      3.3769    
  3.5016      3.6584      3.8339      4.0082      4.1574      4.2584      4.2942      4.2584      4.1574      4.0082    
  3.8339      3.6584      3.5016      3.3768      3.2891      3.2362      3.2105      3.2029      3.2052      3.2100    
  3.2123      3.2100      3.2052      3.2029      3.2104      3.2362      3.2891      3.3768      4.0606      4.4380    
  4.8227      5.1697      5.4329      5.5747      5.5746      5.4327      5.1696      4.8226      4.4380      4.0608    
  3.7253      3.4495      3.2362      3.0772      2.9608      2.8773      2.8221      2.7943      2.7943      2.8220    
  2.8772      2.9608      3.0774      3.2363      3.4494      3.7250      5.2023      5.8830      6.5233      7.0476    
  7.3971      7.5207      7.3972      7.0476      6.5233      5.8830      5.2022      4.5558      3.9972      3.5498    
  3.2104      2.9607      2.7800      2.6544      2.5787      2.5531      2.5787      2.6544      2.7800      2.9607    
  3.2104      3.5498      3.9972      4.5558      7.1491      8.2277      9.2491      10.061      10.512      10.512    
  10.061      9.2494      8.2278      7.1489      6.0927      5.1173      4.2987      3.6652      3.2029      2.8773    
  2.6544      2.5125      2.4425      2.4426      2.5126      2.6544      2.8772      3.2028      3.6651      4.2986    
  5.1174      6.0931      10.435      12.330      13.994      15.130      15.533      15.130      13.994      12.330    
  10.435      8.6100      7.0342      5.6933      4.5978      3.7784      3.2050      2.8221      2.5788      2.4426    
  2.3984      2.4426      2.5788      2.8221      3.2051      3.7784      4.5978      5.6934      7.0342      8.6100    
  16.255      19.194      21.451      22.670      22.670      21.451      19.193      16.254      13.113      10.248    
  7.9569      6.2150      4.8540      3.8696      3.2098      2.7941      2.5533      2.4428      2.4424      2.5529    
  2.7945      3.2102      3.8694      4.8537      6.2155      7.9573      10.248      13.113      25.221      29.032    
  31.532      32.400      31.532      29.032      25.221      20.636      15.965      11.877      8.7743      6.6114    
  5.0273      3.9208      3.2123      2.7939      2.5787      2.5130      2.5787      2.7939      3.2123      3.9208    
  5.0273      6.6113      8.7743      11.877      15.965      20.636      37.075      41.336      43.597      43.597    
  41.336      37.076      31.330      24.847      18.528      13.207      9.3483      6.8258      5.0884      3.9208    
  3.2103      2.8217      2.6541      2.6547      2.8224      3.2098      3.9202      5.0889      6.8263      9.3476    
  13.207      18.529      24.848      31.330      51.083      55.343      56.828      55.343      51.083      44.587    
  36.632      28.183      20.313      13.958      9.5557      6.8260      5.0269      3.8696      3.2055      2.8772    
  2.7797      2.8772      3.2055      3.8696      5.0269      6.8260      9.5556      13.958      20.313      28.183    
  36.632      44.587      66.476      70.235      70.235      66.476      59.570      50.475      40.254      30.030    
  20.954      13.958      9.3481      6.6118      4.8537      3.7783      3.2031      2.9609      2.9606      3.2027    
  3.7786      4.8541      6.6116      9.3478      13.958      20.955      30.030      40.254      50.475      59.570    
  82.310      84.774      82.310      75.444      65.447      53.733      41.544      30.030      20.314      13.207    
  8.7743      6.2153      4.5977      3.6651      3.2104      3.0774      3.2104      3.6651      4.5976      6.2153    
  8.7743      13.207      20.314      30.030      41.544      53.733      65.447      75.444      96.854      96.855    
  90.944      80.524      67.560      53.733      40.254      28.183      18.528      11.877      7.9572      5.6934    
  4.2985      3.5497      3.2363      3.2362      3.5497      4.2988      5.6935      7.9569      11.877      18.529    
  28.183      40.254      53.732      67.561      80.524      90.944      107.42      103.85      94.108      80.524    
  65.446      50.474      36.632      24.848      15.965      10.248      7.0348      5.1174      3.9968      3.4494    
  3.2895      3.4494      3.9968      5.1174      7.0348      10.248      15.965      24.848      36.632      50.474    
  65.446      80.524      94.108      103.85      111.33      103.85      90.944      75.445      59.570      44.586    
  31.330      20.637      13.113      8.6096      6.0931      4.5562      3.7249      3.3766      3.3771      3.7253    
  4.5555      6.0927      8.6104      13.113      20.636      31.330      44.587      59.570      75.444      90.943    
  103.85      111.33      90.634      79.772      66.476      52.584      39.304      27.562      18.211      11.752    
  7.9206      5.6922      4.3149      3.5743      3.2639      3.2637      3.5741      4.3152      5.6923      7.9201    
  11.752      18.211      27.562      39.304      52.584      66.477      79.772      90.633      96.854      96.855    
  79.772      68.249      55.343      42.498      30.728      20.895      13.650      9.0610      6.4147      4.7522    
  3.7876      3.3164      3.1784      3.3163      3.7876      4.7522      6.4147      9.0608      13.649      20.895    
  30.728      42.498      55.343      68.249      79.772      87.955      90.944      87.956      66.476      55.343    
  43.597      32.400      22.670      15.131      10.061      7.0476      5.1696      4.0081      3.3851      3.1234    
  3.1233      3.3849      4.0082      5.1698      7.0476      10.061      15.130      22.670      32.400      43.597    
  55.343      66.476      75.444      80.524      80.524      75.444      52.584      42.498      32.400      23.289    
  15.938      10.749      7.5272      5.5160      4.2097      3.4581      3.0897      2.9813      3.0896      3.4581    