unknown system                          
   1.00000000000000     
     3.025710    0.000000    0.000000
     1.512855    2.620342    0.000000
     1.512855    0.873447    2.470482
   Pd
     1
Direct
  0.000000  0.000000  0.000000
 
   28   28   28
 0.12441356356E+03 0.11980536998E+03 0.10742340326E+03 0.90633680314E+02 0.72746072054E+02
 0.55747093033E+02 0.40496755160E+02 0.27596342361E+02 0.17732168148E+02 0.11234813607E+02
 0.75639139821E+01 0.54592593942E+01 0.42196664057E+01 0.36115162887E+01 0.34338502229E+01
 0.36115162887E+01 0.42196664057E+01 0.54592593942E+01 0.75639139821E+01 0.11234813607E+02
 0.17732168148E+02 0.27596342361E+02 0.40496755160E+02 0.55747093033E+02 0.72746072054E+02
 0.90633680314E+02 0.10742340326E+03 0.11980536998E+03 0.11980488885E+03 0.11132659470E+03
 0.96855071733E+02 0.79772179264E+02 0.62661819315E+02 0.46832933366E+02 0.32965996431E+02
 0.21754805683E+02 0.13785236717E+02 0.89670274546E+01 0.63057760080E+01 0.46939212415E+01
 0.38181845898E+01 0.34508475739E+01 0.34516392308E+01 0.38189176791E+01 0.46930586368E+01
 0.63051174167E+01 0.89680844394E+01 0.13786041483E+02 0.21753756870E+02 0.32965101418E+02
 0.46833805673E+02 0.62662402434E+02 0.79770963736E+02 0.96854436101E+02 0.11132826650E+03
 0.11980622292E+03 0.10742265428E+03 0.96854097199E+02 0.82310185452E+02 0.66476842709E+02
 0.51083790717E+02 0.37075008442E+02 0.25220582883E+02 0.16254901941E+02 0.10434970522E+02
 0.71485972433E+01 0.52022480158E+01 0.40610856707E+01 0.35015771065E+01 0.33375504163E+01
 0.35015821136E+01 0.40610926019E+01 0.52022524427E+01 0.71485963210E+01 0.10434964259E+02
 0.16254892443E+02 0.25220572557E+02 0.37074998327E+02 0.51083780965E+02 0.66476831215E+02
 0.82310173514E+02 0.96854086173E+02 0.10742264728E+03 0.11132827879E+03 0.90633848436E+02
 0.79771530017E+02 0.66476181176E+02 0.52584109837E+02 0.39304371669E+02 0.27561969324E+02
 0.18210695625E+02 0.11752429717E+02 0.79205542672E+01 0.56921694885E+01 0.43148805727E+01
 0.35742643168E+01 0.32639001013E+01 0.32636859585E+01 0.35741113306E+01 0.43151718541E+01
 0.56922510681E+01 0.79200624073E+01 0.11752193246E+02 0.18211186169E+02 0.27562315000E+02
 0.39304047353E+02 0.52583995183E+02 0.66476728635E+02 0.79771633160E+02 0.90632901869E+02
 0.96854411460E+02 0.96855085348E+02 0.72746798862E+02 0.62662300440E+02 0.51083812892E+02
 0.39304203547E+02 0.28388759876E+02 0.19291587126E+02 0.12671444423E+02 0.85298539209E+01
 0.61006607559E+01 0.45502233747E+01 0.36553074987E+01 0.32179668099E+01 0.30897411309E+01
 0.32179670640E+01 0.36553097408E+01 0.45502289011E+01 0.61006683074E+01 0.85298591496E+01
 0.12671443517E+02 0.19291579553E+02 0.28388752124E+02 0.39304203966E+02 0.51083827417E+02
 0.62662328967E+02 0.72746829965E+02 0.79771465037E+02 0.82310195689E+02 0.79771444860E+02
 0.55746931986E+02 0.46833253443E+02 0.37075662899E+02 0.27562298494E+02 0.19291426079E+02
 0.13001414835E+02 0.88703676249E+01 0.63716690371E+01 0.47317749442E+01 0.37288909659E+01
 0.31911429295E+01 0.29640625319E+01 0.29636381226E+01 0.31906693391E+01 0.37292690729E+01
 0.47323593477E+01 0.63715301721E+01 0.88699509298E+01 0.13001513597E+02 0.19291649472E+02
 0.27561993653E+02 0.37075298140E+02 0.46833523377E+02 0.55747442872E+02 0.62662167920E+02
 0.66476399465E+02 0.66476498852E+02 0.62662082357E+02 0.40496006177E+02 0.32965172676E+02
 0.25220582883E+02 0.18211206379E+02 0.12671422248E+02 0.88698639471E+01 0.64665287814E+01
 0.48319616949E+01 0.37809230575E+01 0.31755723157E+01 0.28757142875E+01 0.27867852545E+01
 0.28757086695E+01 0.31755681570E+01 0.37809290773E+01 0.48319795105E+01 0.64665526700E+01
 0.88698818257E+01 0.12671429460E+02 0.18211204599E+02 0.25220584535E+02 0.32965190057E+02
 0.40496039270E+02 0.46833704961E+02 0.51083805242E+02 0.52583820675E+02 0.51083780965E+02
 0.46833667179E+02 0.27596597070E+02 0.21754069851E+02 0.16254153823E+02 0.11752516302E+02
 0.85301086291E+01 0.63712532819E+01 0.48313643560E+01 0.38001255759E+01 0.31697844585E+01
 0.28218696808E+01 0.26704971035E+01 0.26711120940E+01 0.28225058863E+01 0.31691593949E+01
 0.37993497232E+01 0.48317793526E+01 0.63719481146E+01 0.85298539286E+01 0.11752121907E+02
 0.16254635922E+02 0.21754507141E+02 0.27596024598E+02 0.32965277980E+02 0.37075713895E+02
 0.39304458674E+02 0.39303960768E+02 0.37075237029E+02 0.32965837250E+02 0.17733217751E+02
 0.13785717842E+02 0.10434669902E+02 0.79203861444E+01 0.61009835510E+01 0.47319359913E+01
 0.37806224373E+01 0.31695297503E+01 0.28044697776E+01 0.26128153026E+01 0.25532428341E+01
 0.26128087253E+01 0.28044602989E+01 0.31695212565E+01 0.37806196657E+01 0.47319383960E+01
 0.61009919965E+01 0.79203968945E+01 0.10434681594E+02 0.13785732797E+02 0.17733232441E+02
 0.21754252433E+02 0.25220283915E+02 0.27562154700E+02 0.28389074919E+02 0.27562146877E+02
 0.25220271937E+02 0.21754237994E+02 0.11234954912E+02 0.89676498842E+01 0.71489493481E+01
 0.56921963061E+01 0.45503646798E+01 0.37291933181E+01 0.31757736413E+01 0.28219830838E+01
 0.26129566077E+01 0.25153182385E+01 0.25149761529E+01 0.26126246986E+01 0.28223963604E+01
 0.31762683562E+01 0.37289525780E+01 0.45498803507E+01 0.56922195018E+01 0.71491308370E+01
 0.89674792941E+01 0.11234903311E+02 0.13785874102E+02 0.16254522519E+02 0.18210720663E+02
 0.19291347120E+02 0.19291720858E+02 0.18211159352E+02 0.16254257728E+02 0.13785419053E+02
 0.75631649988E+01 0.63053909572E+01 0.52022480158E+01 0.43149526217E+01 0.36552853238E+01
 0.31910779562E+01 0.28757142875E+01 0.26706557379E+01 0.25535434543E+01 0.25152135318E+01
 0.25535492599E+01 0.26706628644E+01 0.28757172368E+01 0.31910728380E+01 0.36552735969E+01
 0.43149409306E+01 0.52022396819E+01 0.63053955908E+01 0.75631789835E+01 0.89675245254E+01
 0.10434982214E+02 0.11752472689E+02 0.12671429460E+02 0.13001256476E+02 0.12671421342E+02
 0.11752457442E+02 0.10434964259E+02 0.89675072410E+01 0.54592464145E+01 0.46934530966E+01
 0.40606052405E+01 0.35740832144E+01 0.32179538302E+01 0.29639144646E+01 0.27864556034E+01
 0.26708444061E+01 0.26127957456E+01 0.26127789834E+01 0.26707719179E+01 0.27863188060E+01
 0.29637994148E+01 0.32179865887E+01 0.35742847715E+01 0.40608353149E+01 0.46935125354E+01
 0.54590670903E+01 0.63053124968E+01 0.71489765521E+01 0.79203839148E+01 0.85301216165E+01
 0.88702374362E+01 0.88700989972E+01 0.85298461699E+01 0.79202435097E+01 0.71491027106E+01
 0.63055855615E+01 0.42204351428E+01 0.38186657143E+01 0.35015573526E+01 0.32637319785E+01
 0.30897830596E+01 0.29637991697E+01 0.28756889156E+01 0.28222511781E+01 0.28041794326E+01
 0.28222550552E+01 0.28756974830E+01 0.29638123945E+01 0.30897987627E+01 0.32637460550E+01
 0.35015629476E+01 0.38186625837E+01 0.42204251770E+01 0.46935255151E+01 0.52022199280E+01
 0.56920781966E+01 0.61007111302E+01 0.63716934065E+01 0.64665329162E+01 0.63716912191E+01
 0.61007102362E+01 0.56920829453E+01 0.52022326888E+01 0.46935397614E+01 0.36115310113E+01
 0.34513434211E+01 0.33380291036E+01 0.32638393587E+01 0.32179817866E+01 0.31908451087E+01
 0.31758960651E+01 0.31693993804E+01 0.31695359791E+01 0.31761417737E+01 0.31909620416E+01
 0.32179588864E+01 0.32637607776E+01 0.33378775735E+01 0.34511529650E+01 0.36115140031E+01
 0.38186773063E+01 0.40608630172E+01 0.43150222818E+01 0.45500069332E+01 0.47319531186E+01
 0.48315393671E+01 0.48316221572E+01 0.47321835781E+01 0.45502436238E+01 0.43150184539E+01
 0.40605844693E+01 0.38184218319E+01 0.34331012396E+01 0.34511581062E+01 0.35015821136E+01
 0.35742794534E+01 0.36552875659E+01 0.37291080259E+01 0.37809290773E+01 0.37996044314E+01
 0.37809202858E+01 0.37290938831E+01 0.36552735969E+01 0.35742717918E+01 0.35015827015E+01
 0.34511676876E+01 0.34331148372E+01 0.34511676876E+01 0.35015827015E+01 0.35742717918E+01
 0.36552735969E+01 0.37290938831E+01 0.37809202858E+01 0.37996044314E+01 0.37809290773E+01
 0.37291080259E+01 0.36552875659E+01 0.35742794534E+01 0.35015821136E+01 0.34511581062E+01
 0.36115310113E+01 0.38184218319E+01 0.40605844693E+01 0.43150184539E+01 0.45502436238E+01
 0.47321835781E+01 0.48316221572E+01 0.48315393671E+01 0.47319531186E+01 0.45500069332E+01
 0.43150222818E+01 0.40608630172E+01 0.38186773063E+01 0.36115140031E+01 0.34511529650E+01
 0.33378775735E+01 0.32637607776E+01 0.32179588864E+01 0.31909620416E+01 0.31761417737E+01
 0.31695359791E+01 0.31693993804E+01 0.31758960651E+01 0.31908451087E+01 0.32179817866E+01
 0.32638393587E+01 0.33380291036E+01 0.34513434211E+01 0.42204351428E+01 0.46935397614E+01
 0.52022326888E+01 0.56920829453E+01 0.61007102362E+01 0.63716912191E+01 0.64665329162E+01
 0.63716934065E+01 0.61007111302E+01 0.56920781966E+01 0.52022199280E+01 0.46935255151E+01
 0.42204251770E+01 0.38186625837E+01 0.35015629476E+01 0.32637460550E+01 0.30897987627E+01
 0.29638123945E+01 0.28756974830E+01 0.28222550552E+01 0.28041794326E+01 0.28222511781E+01
 0.28756889156E+01 0.29637991697E+01 0.30897830596E+01 0.32637319785E+01 0.35015573526E+01
 0.38186657143E+01 0.54592464145E+01 0.63055855615E+01 0.71491027106E+01 0.79202435097E+01
 0.85298461699E+01 0.88700989972E+01 0.88702374362E+01 0.85301216165E+01 0.79203839148E+01
 0.71489765521E+01 0.63053124968E+01 0.54590670903E+01 0.46935125354E+01 0.40608353149E+01
 0.35742847715E+01 0.32179865887E+01 0.29637994148E+01 0.27863188060E+01 0.26707719179E+01
 0.26127789834E+01 0.26127957456E+01 0.26708444061E+01 0.27864556034E+01 0.29639144646E+01
 0.32179538302E+01 0.35740832144E+01 0.40606052405E+01 0.46934530966E+01 0.75631649988E+01
 0.89675072410E+01 0.10434964259E+02 0.11752457442E+02 0.12671421342E+02 0.13001256476E+02
 0.12671429460E+02 0.11752472689E+02 0.10434982214E+02 0.89675245254E+01 0.75631789835E+01
 0.63053955908E+01 0.52022396819E+01 0.43149409306E+01 0.36552735969E+01 0.31910728380E+01
 0.28757172368E+01 0.26706628644E+01 0.25535492599E+01 0.25152135318E+01 0.25535434543E+01
 0.26706557379E+01 0.28757142875E+01 0.31910779562E+01 0.36552853238E+01 0.43149526217E+01
 0.52022480158E+01 0.63053909572E+01 0.11234954912E+02 0.13785419053E+02 0.16254257728E+02
 0.18211159352E+02 0.19291720858E+02 0.19291347120E+02 0.18210720663E+02 0.16254522519E+02
 0.13785874102E+02 0.11234903311E+02 0.89674792941E+01 0.71491308370E+01 0.56922195018E+01
 0.45498803507E+01 0.37289525780E+01 0.31762683562E+01 0.28223963604E+01 0.26126246986E+01
 0.25149761529E+01 0.25153182385E+01 0.26129566077E+01 0.28219830838E+01 0.31757736413E+01
 0.37291933181E+01 0.45503646798E+01 0.56921963061E+01 0.71489493481E+01 0.89676498842E+01
 0.17733217751E+02 0.21754237994E+02 0.25220271937E+02 0.27562146877E+02 0.28389074919E+02
 0.27562154700E+02 0.25220283915E+02 0.21754252433E+02 0.17733232441E+02 0.13785732797E+02
 0.10434681594E+02 0.79203968945E+01 0.61009919965E+01 0.47319383960E+01 0.37806196657E+01
 0.31695212565E+01 0.28044602989E+01 0.26128087253E+01 0.25532428341E+01 0.26128153026E+01
 0.28044697776E+01 0.31695297503E+01 0.37806224373E+01 0.47319359913E+01 0.61009835510E+01
 0.79203861444E+01 0.10434669902E+02 0.13785717842E+02 0.27596597070E+02 0.32965837250E+02
 0.37075237029E+02 0.39303960768E+02 0.39304458674E+02 0.37075713895E+02 0.32965277980E+02
 0.27596024598E+02 0.21754507141E+02 0.16254635922E+02 0.11752121907E+02 0.85298539286E+01
 0.63719481146E+01 0.48317793526E+01 0.37993497232E+01 0.31691593949E+01 0.28225058863E+01
 0.26711120940E+01 0.26704971035E+01 0.28218696808E+01 0.31697844585E+01 0.38001255759E+01
 0.48313643560E+01 0.63712532819E+01 0.85301086291E+01 0.11752516302E+02 0.16254153823E+02
 0.21754069851E+02 0.40496006177E+02 0.46833667179E+02 0.51083780965E+02 0.52583820675E+02
 0.51083805242E+02 0.46833704961E+02 0.40496039270E+02 0.32965190057E+02 0.25220584535E+02
 0.18211204599E+02 0.12671429460E+02 0.88698818257E+01 0.64665526700E+01 0.48319795105E+01
 0.37809290773E+01 0.31755681570E+01 0.28757086695E+01 0.27867852545E+01 0.28757142875E+01
 0.31755723157E+01 0.37809230575E+01 0.48319616949E+01 0.64665287814E+01 0.88698639471E+01
 0.12671422248E+02 0.18211206379E+02 0.25220582883E+02 0.32965172676E+02 0.55746931986E+02
 0.62662082357E+02 0.66476498852E+02 0.66476399465E+02 0.62662167920E+02 0.55747442872E+02
 0.46833523377E+02 0.37075298140E+02 0.27561993653E+02 0.19291649472E+02 0.13001513597E+02
 0.88699509298E+01 0.63715301721E+01 0.47323593477E+01 0.37292690729E+01 0.31906693391E+01
 0.29636381226E+01 0.29640625319E+01 0.31911429295E+01 0.37288909659E+01 0.47317749442E+01
 0.63716690371E+01 0.88703676249E+01 0.13001414835E+02 0.19291426079E+02 0.27562298494E+02
 0.37075662899E+02 0.46833253443E+02 0.72746798862E+02 0.79771444860E+02 0.82310195689E+02
 0.79771465037E+02 0.72746829965E+02 0.62662328967E+02 0.51083827417E+02 0.39304203966E+02
 0.28388752124E+02 0.19291579553E+02 0.12671443517E+02 0.85298591496E+01 0.61006683074E+01
 0.45502289011E+01 0.36553097408E+01 0.32179670640E+01 0.30897411309E+01 0.32179668099E+01
 0.36553074987E+01 0.45502233747E+01 0.61006607559E+01 0.85298539209E+01 0.12671444423E+02
 0.19291587126E+02 0.28388759876E+02 0.39304203547E+02 0.51083812892E+02 0.62662300440E+02
 0.90633848436E+02 0.96855085348E+02 0.96854411460E+02 0.90632901869E+02 0.79771633160E+02
 0.66476728635E+02 0.52583995183E+02 0.39304047353E+02 0.27562315000E+02 0.18211186169E+02
 0.11752193246E+02 0.79200624073E+01 0.56922510681E+01 0.43151718541E+01 0.35741113306E+01
 0.32636859585E+01 0.32639001013E+01 0.35742643168E+01 0.43148805727E+01 0.56921694885E+01
 0.79205542672E+01 0.11752429717E+02 0.18210695625E+02 0.27561969324E+02 0.39304371669E+02
 0.52584109837E+02 0.66476181176E+02 0.79771530017E+02 0.10742265428E+03 0.11132827879E+03
 0.10742264728E+03 0.96854086173E+02 0.82310173514E+02 0.66476831215E+02 0.51083780965E+02
 0.37074998327E+02 0.25220572557E+02 0.16254892443E+02 0.10434964259E+02 0.71485963210E+01
 0.52022524427E+01 0.40610926019E+01 0.35015821136E+01 0.33375504163E+01 0.35015771065E+01
 0.40610856707E+01 0.52022480158E+01 0.71485972433E+01 0.10434970522E+02 0.16254901941E+02
 0.25220582883E+02 0.37075008442E+02 0.51083790717E+02 0.66476842709E+02 0.82310185452E+02
 0.96854097199E+02 0.11980488885E+03 0.11980622292E+03 0.11132826650E+03 0.96854436101E+02
 0.79770963736E+02 0.62662402434E+02 0.46833805673E+02 0.32965101418E+02 0.21753756870E+02
 0.13786041483E+02 0.89680844394E+01 0.63051174167E+01 0.46930586368E+01 0.38189176791E+01
 0.34516392308E+01 0.34508475739E+01 0.38181845898E+01 0.46939212415E+01 0.63057760080E+01
 0.89670274546E+01 0.13785236717E+02 0.21754805683E+02 0.32965996431E+02 0.46832933366E+02
 0.62661819315E+02 0.79772179264E+02 0.96855071733E+02 0.11132659470E+03 0.11980488885E+03
 0.11132659470E+03 0.96855071733E+02 0.79772179264E+02 0.62661819315E+02 0.46832933366E+02
 0.32965996431E+02 0.21754805683E+02 0.13785236717E+02 0.89670274546E+01 0.63057760080E+01
 0.46939212415E+01 0.38181845898E+01 0.34508475739E+01 0.34516392308E+01 0.38189176791E+01
 0.46930586368E+01 0.63051174167E+01 0.89680844394E+01 0.13786041483E+02 0.21753756870E+02
 0.32965101418E+02 0.46833805673E+02 0.62662402434E+02 0.79770963736E+02 0.96854436101E+02
 0.11132826650E+03 0.11980622292E+03 0.11132704105E+03 0.10010724401E+03 0.84774074088E+02
 0.68249911876E+02 0.52359657585E+02 0.38007720844E+02 0.25883291315E+02 0.16681197278E+02
 0.10673303718E+02 0.72772033114E+01 0.52858303713E+01 0.41157251245E+01 0.35412579698E+01
 0.33728197915E+01 0.35413825393E+01 0.41157875893E+01 0.52857774052E+01 0.72772168280E+01
 0.10673511399E+02 0.16681441194E+02 0.25883265698E+02 0.38007286591E+02 0.52359019875E+02
 0.68249553177E+02 0.84774416068E+02 0.10010818097E+03 0.11132786702E+03 0.11548756541E+03
 0.96854848534E+02 0.84773787211E+02 0.70234568954E+02 0.55343002299E+02 0.41336430252E+02
 0.29031080936E+02 0.19193421370E+02 0.12329654138E+02 0.82280113397E+01 0.58829560270E+01
 0.44377483294E+01 0.36584367210E+01 0.33316074121E+01 0.33312477412E+01 0.36581614521E+01
 0.44382360381E+01 0.58832225955E+01 0.82274327217E+01 0.12329427560E+02 0.19194202747E+02
 0.29031421203E+02 0.41335456210E+02 0.55342287790E+02 0.70235333205E+02 0.84774651990E+02
 0.96854467715E+02 0.10384628188E+03 0.10384679695E+03 0.79771848378E+02 0.68249339280E+02
 0.55342600893E+02 0.42497929491E+02 0.30727997846E+02 0.20894846536E+02 0.13649528939E+02
 0.90609635709E+01 0.64147018160E+01 0.47521814397E+01 0.37876115455E+01 0.33163956822E+01
 0.31784384042E+01 0.33163196176E+01 0.37875992746E+01 0.47522277752E+01 0.64146508952E+01
 0.90608151856E+01 0.13649481262E+02 0.20894994474E+02 0.30728215510E+02 0.42498080548E+02
 0.55342649163E+02 0.68249240420E+02 0.79771588949E+02 0.87955397802E+02 0.90943579964E+02
 0.87955647121E+02 0.62662227100E+02 0.52359601789E+02 0.41336249021E+02 0.30727945930E+02
 0.21495034308E+02 0.14381178551E+02 0.96388629067E+01 0.68127101313E+01 0.50169690091E+01
 0.39106326532E+01 0.33176443683E+01 0.30682527058E+01 0.30679708230E+01 0.33173038916E+01
 0.39108215768E+01 0.50173051196E+01 0.68125816475E+01 0.96385390429E+01 0.14381266213E+02
 0.21495390876E+02 0.30728014511E+02 0.41336035998E+02 0.52359525043E+02 0.62662337470E+02
 0.70849386634E+02 0.75444218458E+02 0.75444227545E+02 0.70849328089E+02 0.46833400079E+02
 0.38008020987E+02 0.29031355911E+02 0.20895135084E+02 0.14381265270E+02 0.98456395164E+01
 0.70271505987E+01 0.51947905661E+01 0.40076729563E+01 0.33252788926E+01 0.29895644977E+01
 0.28905407339E+01 0.29895473624E+01 0.33252688019E+01 0.40076993629E+01 0.51948648100E+01
 0.70272472901E+01 0.98456990670E+01 0.14381228951E+02 0.20895002461E+02 0.29031214493E+02
 0.38007989447E+02 0.46833532261E+02 0.54400780462E+02 0.59570088126E+02 0.61414952804E+02
 0.59569914829E+02 0.54400553767E+02 0.32965783834E+02 0.25883042793E+02 0.19193428524E+02
 0.13649912739E+02 0.96390621726E+01 0.70269197887E+01 0.52567501183E+01 0.40616889829E+01
 0.33339574669E+01 0.29371902628E+01 0.27667322197E+01 0.27673094462E+01 0.29377971855E+01
 0.33334181517E+01 0.40610525074E+01 0.52572181118E+01 0.70275386587E+01 0.96386689258E+01
 0.13649409859E+02 0.19193929832E+02 0.25883657517E+02 0.32965377114E+02 0.39515138215E+02
 0.44586960225E+02 0.47365838793E+02 0.47365512995E+02 0.44586785415E+02 0.39515783119E+02
 0.21754701609E+02 0.16680661123E+02 0.12329051083E+02 0.90609514238E+01 0.68129886662E+01
 0.51945404294E+01 0.40611048724E+01 0.33370791660E+01 0.29115461031E+01 0.26927153185E+01
 0.26257206808E+01 0.26927566238E+01 0.29115388811E+01 0.33369714787E+01 0.40609564741E+01
 0.51944610980E+01 0.68130537601E+01 0.90611629307E+01 0.12329334812E+02 0.16680861492E+02
 0.21754666356E+02 0.26894729663E+02 0.31329415865E+02 0.34338674254E+02 0.35405106821E+02
 0.34338948610E+02 0.31329810571E+02 0.26895020187E+02 0.13785898355E+02 0.10673534833E+02
 0.82275976517E+01 0.64143855448E+01 0.50172228621E+01 0.40078706633E+01 0.33335232412E+01
 0.29110011964E+01 0.26678864159E+01 0.25569507983E+01 0.25565546500E+01 0.26674685500E+01
 0.29113600366E+01 0.33339304496E+01 0.40075261863E+01 0.50168130606E+01 0.64147049521E+01
 0.82280030723E+01 0.10673282169E+02 0.13785605703E+02 0.17276194123E+02 0.20636164991E+02
 0.23292234364E+02 0.24759162306E+02 0.24759551998E+02 0.23292678250E+02 0.20635901717E+02
 0.17275869302E+02 0.89674780824E+01 0.72779367162E+01 0.58832552090E+01 0.47520490746E+01
 0.39107088281E+01 0.33257121546E+01 0.29374413505E+01 0.26925393107E+01 0.25567387189E+01
 0.25131105613E+01 0.25567497689E+01 0.26925573339E+01 0.29375212834E+01 0.33258702492E+01
 0.39107927803E+01 0.47518831843E+01 0.58829390073E+01 0.72777806944E+01 0.89676171606E+01
 0.10976825568E+02 0.13112984660E+02 0.15034614602E+02 0.16373550618E+02 0.16853772319E+02
 0.16373600563E+02 0.15034623348E+02 0.13112842087E+02 0.10976567128E+02 0.63052650725E+01
 0.52858598586E+01 0.44380510769E+01 0.37877173526E+01 0.33175510816E+01 0.29896160004E+01
 0.27670278132E+01 0.26260224682E+01 0.25566902862E+01 0.25567768604E+01 0.26261133378E+01
 0.27669460989E+01 0.29895217340E+01 0.33176183279E+01 0.37877955441E+01 0.44379661836E+01
 0.52857598931E+01 0.63053365932E+01 0.74259554376E+01 0.86100078029E+01 0.97620814081E+01
 0.10696933960E+02 0.11223451562E+02 0.11223381939E+02 0.10696860425E+02 0.97621317303E+01
 0.86100370862E+01 0.74258465829E+01 0.46934864404E+01 0.41151821378E+01 0.36581601445E+01
 0.33163858123E+01 0.30682009769E+01 0.28902863205E+01 0.27670546704E+01 0.26927589010E+01
 0.26676793767E+01 0.26927237953E+01 0.27669703192E+01 0.28901428297E+01 0.30680636231E+01
 0.33163983721E+01 0.36583857265E+01 0.41154581645E+01 0.46935519638E+01 0.53707511572E+01
 0.60927651533E+01 0.67804876134E+01 0.73558335486E+01 0.77475885638E+01 0.78874851796E+01
 0.77474518789E+01 0.73557138170E+01 0.67805538438E+01 0.60930107282E+01 0.53709498370E+01
 0.38186813804E+01 0.35413280799E+01 0.33313565142E+01 0.31782822738E+01 0.30680598288E+01
 0.29895820672E+01 0.29375256229E+01 0.29111555518E+01 0.29111951895E+01 0.29375676194E+01
 0.29895451705E+01 0.30680124102E+01 0.31783128560E+01 0.33314087181E+01 0.35413154534E+01
 0.38186482887E+01 0.41627265343E+01 0.45558556190E+01 0.49624876489E+01 0.53341084958E+01
 0.56189003083E+01 0.57735447875E+01 0.57735279870E+01 0.56188970133E+01 0.53341567046E+01
 0.49625247323E+01 0.45558334956E+01 0.41627090374E+01 0.34512869397E+01 0.33734158025E+01
 0.33315539571E+01 0.33163264457E+01 0.33173765518E+01 0.33255646702E+01 0.33336727580E+01
 0.33369327280E+01 0.33337151551E+01 0.33257328554E+01 0.33175932287E+01 0.33163674731E+01
 0.33313586149E+01 0.33731710126E+01 0.34511746493E+01 0.35697783155E+01 0.37251744605E+01
 0.39041630365E+01 0.40854720448E+01 0.42430640054E+01 0.43510085297E+01 0.43896064163E+01
 0.43512704799E+01 0.42432730133E+01 0.40854217325E+01 0.39039526792E+01 0.37249948404E+01
 0.35697254886E+01 0.34511632659E+01 0.35413541360E+01 0.36584199099E+01 0.37877606316E+01
 0.39107765969E+01 0.40077011960E+01 0.40613038112E+01 0.40613097971E+01 0.40077074081E+01
 0.39107698237E+01 0.37877512544E+01 0.36584125398E+01 0.35413375141E+01 0.34511502799E+01
 0.33961200790E+01 0.33768174596E+01 0.33870058881E+01 0.34163805841E+01 0.34532631508E+01
 0.34862319222E+01 0.35055975017E+01 0.35055887316E+01 0.34862346215E+01 0.34533034410E+01
 0.34164153915E+01 0.33869860448E+01 0.33767661821E+01 0.33960959877E+01 0.38185018409E+01
 0.41152325385E+01 0.44379302372E+01 0.47522219267E+01 0.50172807733E+01 0.51946102555E+01
 0.52569415072E+01 0.51944673966E+01 0.50170476551E+01 0.47520469516E+01 0.44379680109E+01
 0.41154621858E+01 0.38187234473E+01 0.35698075245E+01 0.33767695626E+01 0.32356713200E+01
 0.31358921620E+01 0.30664467520E+01 0.30199388298E+01 0.29928253696E+01 0.29838179407E+01
 0.29926684485E+01 0.30197724412E+01 0.30664074970E+01 0.31360005120E+01 0.32358496658E+01
 0.33768949542E+01 0.35697620422E+01 0.46935500172E+01 0.52858367959E+01 0.58829705897E+01
 0.64144974256E+01 0.68126652431E+01 0.70272775252E+01 0.70272751029E+01 0.68126787510E+01
 0.64145346947E+01 0.58829782758E+01 0.52857896198E+01 0.46935086918E+01 0.41627211240E+01
 0.37252180265E+01 0.33869917076E+01 0.31358265960E+01 0.29526688796E+01 0.28215503015E+01
 0.27344493850E+01 0.26902596596E+01 0.26902803103E+01 0.27344618867E+01 0.28215027721E+01
 0.29526105081E+01 0.31358194110E+01 0.33870078593E+01 0.37252078938E+01 0.41627144477E+01
 0.63055519757E+01 0.72777636308E+01 0.82277386627E+01 0.90608667671E+01 0.96386067689E+01
 0.98459457270E+01 0.96389268967E+01 0.90611745891E+01 0.82277863511E+01 0.72775940924E+01
 0.63053135182E+01 0.53707700300E+01 0.45558040400E+01 0.39041138282E+01 0.34164076395E+01
 0.30664690827E+01 0.28215069114E+01 0.26566343442E+01 0.25595388535E+01 0.25271568364E+01
 0.25595393509E+01 0.26567354464E+01 0.28216433113E+01 0.30664302390E+01 0.34161720630E+01
 0.39039105904E+01 0.45558154672E+01 0.53709584703E+01 0.89676762046E+01 0.10673395647E+02
 0.12329608968E+02 0.13649724903E+02 0.14381295397E+02 0.14381145602E+02 0.13649584113E+02
 0.12329771526E+02 0.10673539820E+02 0.89675104488E+01 0.74258340986E+01 0.60928751253E+01
 0.49625863765E+01 0.40853641107E+01 0.34531861015E+01 0.30200705473E+01 0.27345418224E+01
 0.25594295427E+01 0.24755104016E+01 0.24756859839E+01 0.25596062340E+01 0.27343646712E+01
 0.30198857122E+01 0.34533611793E+01 0.40855653394E+01 0.49624433056E+01 0.60926899250E+01
 0.74259679219E+01 0.13785822515E+02 0.16680869660E+02 0.19193686417E+02 0.20894994120E+02
 0.21495570929E+02 0.20894739503E+02 0.19193446502E+02 0.16680873284E+02 0.13786043722E+02
 0.10976980436E+02 0.86098027201E+01 0.67804971289E+01 0.53343874894E+01 0.42430848847E+01
 0.34859773056E+01 0.29928308638E+01 0.26905295908E+01 0.25271271802E+01 0.24753481263E+01
 0.25271407308E+01 0.26904630176E+01 0.29926978085E+01 0.34859366889E+01 0.42432287581E+01
 0.53346098500E+01 0.67806056031E+01 0.86097086557E+01 0.10976735581E+02 0.21754473358E+02
 0.25883532994E+02 0.29030931933E+02 0.30727839647E+02 0.30728323214E+02 0.29031459741E+02
 0.25883165204E+02 0.21754073682E+02 0.17276248973E+02 0.13113236534E+02 0.97618801040E+01
 0.73555715539E+01 0.56191200056E+01 0.43512651121E+01 0.35053525277E+01 0.29835336030E+01
 0.26905054179E+01 0.25597959353E+01 0.25592829146E+01 0.26899737625E+01 0.29840264323E+01
 0.35059068225E+01 0.43508223836E+01 0.56185762139E+01 0.73559678765E+01 0.97623821898E+01
 0.13112861898E+02 0.17275814452E+02 0.32965543892E+02 0.38008243254E+02 0.41335747402E+02
 0.42497712097E+02 0.41336106576E+02 0.38008645968E+02 0.32965626309E+02 0.26894329406E+02
 0.20635956233E+02 0.15034837860E+02 0.10696898984E+02 0.77471926390E+01 0.57735001137E+01
 0.43899670686E+01 0.35056036544E+01 0.29922753442E+01 0.27344250225E+01 0.26571453069E+01
 0.27344613475E+01 0.29923103351E+01 0.35056548004E+01 0.43900489257E+01 0.57734988924E+01
 0.77470008116E+01 0.10696664816E+02 0.15034860648E+02 0.20636281045E+02 0.26894616683E+02
 0.46833070383E+02 0.52359238854E+02 0.55342793508E+02 0.55342555948E+02 0.52359226981E+02
 0.46833781776E+02 0.39515636779E+02 0.31329520429E+02 0.23292172290E+02 0.16373781981E+02
 0.11223654532E+02 0.78872598758E+01 0.57733047160E+01 0.43515004355E+01 0.34864818816E+01
 0.30195675426E+01 0.28212714944E+01 0.28218713261E+01 0.30202100216E+01 0.34859364041E+01
 0.43508183975E+01 0.57737362147E+01 0.78878721953E+01 0.11223248266E+02 0.16373242164E+02
 0.23292668959E+02 0.31330197222E+02 0.39515284555E+02 0.62661739074E+02 0.68248986438E+02
 0.70235262402E+02 0.68249238468E+02 0.62662078700E+02 0.54400527286E+02 0.44586923355E+02
 0.34338684448E+02 0.24759165390E+02 0.16853944221E+02 0.11223628526E+02 0.77474597962E+01
 0.56187386658E+01 0.42433104311E+01 0.34535019215E+01 0.30664113930E+01 0.29524405006E+01
 0.30664145683E+01 0.34534760404E+01 0.42432271599E+01 0.56186227890E+01 0.77473970008E+01
 0.11223697136E+02 0.16854139475E+02 0.24759393744E+02 0.34338823678E+02 0.44586884113E+02
 0.54400290556E+02 0.79771454957E+02 0.84774457301E+02 0.84774397144E+02 0.79771445142E+02
 0.70849470070E+02 0.59570116236E+02 0.47365589611E+02 0.35404748766E+02 0.24759381581E+02
 0.16373639189E+02 0.10696909774E+02 0.73556915524E+01 0.53341511350E+01 0.40854640911E+01
 0.34164233355E+01 0.31359594119E+01 0.31358192517E+01 0.34162108089E+01 0.40854922171E+01
 0.53343641322E+01 0.73557426096E+01 0.10696695183E+02 0.16373490310E+02 0.24759586878E+02
 0.35405103540E+02 0.47365666623E+02 0.59569864431E+02 0.70849244653E+02 0.96854892274E+02
 0.10010902816E+03 0.96854763434E+02 0.87955148425E+02 0.75444290170E+02 0.61415499851E+02
 0.47365777526E+02 0.34338677486E+02 0.23292473190E+02 0.15034737132E+02 0.97621167954E+01
 0.67802951688E+01 0.49624884847E+01 0.39042038576E+01 0.33870221149E+01 0.32355994670E+01
 0.33869850807E+01 0.39042109770E+01 0.49625571147E+01 0.67803590992E+01 0.97621456901E+01
 0.15034751174E+02 0.23292444439E+02 0.34338563227E+02 0.47365649761E+02 0.61415507562E+02
 0.75444466694E+02 0.87955365238E+02 0.11132743577E+03 0.11132820460E+03 0.10384690079E+03
 0.90943379283E+02 0.75443817777E+02 0.59570269065E+02 0.44587397174E+02 0.31329818476E+02
 0.20635736645E+02 0.13113179104E+02 0.86103532517E+01 0.60926947404E+01 0.45555157337E+01
 0.37253342539E+01 0.33771266372E+01 0.33766030111E+01 0.37248912398E+01 0.45561603353E+01
 0.60931274294E+01 0.86096178110E+01 0.13112772408E+02 0.20636638077E+02 0.31330310417E+02
 0.44586340754E+02 0.59569528279E+02 0.75444812261E+02 0.90944316253E+02 0.10384617804E+03
 0.11980512294E+03 0.11548700375E+03 0.10384716648E+03 0.87955643476E+02 0.70848625459E+02
 0.54400288863E+02 0.39516172697E+02 0.26895028689E+02 0.17275437451E+02 0.10976732290E+02
 0.74265177512E+01 0.53709560617E+01 0.41621228619E+01 0.35697642455E+01 0.33967212155E+01
 0.35697642455E+01 0.41621228619E+01 0.53709560617E+01 0.74265177512E+01 0.10976732290E+02
 0.17275437451E+02 0.26895028689E+02 0.39516172697E+02 0.54400288863E+02 0.70848625459E+02
 0.87955643476E+02 0.10384716648E+03 0.11548700375E+03 0.10742265428E+03 0.96854097199E+02
 0.82310185452E+02 0.66476842709E+02 0.51083790717E+02 0.37075008442E+02 0.25220582883E+02
 0.16254901941E+02 0.10434970522E+02 0.71485972433E+01 0.52022480158E+01 0.40610856707E+01
 0.35015771065E+01 0.33375504163E+01 0.35015821136E+01 0.40610926019E+01 0.52022524427E+01
 0.71485963210E+01 0.10434964259E+02 0.16254892443E+02 0.25220572557E+02 0.37074998327E+02
 0.51083780965E+02 0.66476831215E+02 0.82310173514E+02 0.96854086173E+02 0.10742264728E+03
 0.11132827879E+03 0.96854848534E+02 0.84773787211E+02 0.70234568954E+02 0.55343002299E+02
 0.41336430252E+02 0.29031080936E+02 0.19193421370E+02 0.12329654138E+02 0.82280113397E+01
 0.58829560270E+01 0.44377483294E+01 0.36584367210E+01 0.33316074121E+01 0.33312477412E+01
 0.36581614521E+01 0.44382360381E+01 0.58832225955E+01 0.82274327217E+01 0.12329427560E+02
 0.19194202747E+02 0.29031421203E+02 0.41335456210E+02 0.55342287790E+02 0.70235333205E+02
 0.84774651990E+02 0.96854467715E+02 0.10384628188E+03 0.10384679695E+03 0.82310374861E+02
 0.70234832572E+02 0.56827478528E+02 0.43596598604E+02 0.31531683855E+02 0.21451157644E+02