   1   1   0   0
  0.1958695E+02  0.3025710E-09  0.3025710E-09  0.3025710E-09  0.5000000E-15
  1.000000000000000E-004
  CAR 
 unknown system                          
     27.81187638     -1.36402176  301      5.71735542      1.00000000
     -1.364  0.0000E+00  0.0000E+00
     -1.267  0.0000E+00  0.0000E+00
     -1.170  0.0000E+00  0.0000E+00
     -1.072  0.0000E+00  0.0000E+00
     -0.975 -0.4039E-30 -0.3928E-31
     -0.878 -0.7559E-27 -0.7355E-28
     -0.781 -0.8781E-24 -0.8547E-25
     -0.683 -0.6325E-21 -0.6160E-22
     -0.586 -0.2823E-18 -0.2752E-19
     -0.489 -0.7561E-16 -0.7381E-17
     -0.391 -0.1282E-13 -0.1254E-14
     -0.294 -0.1338E-11 -0.1314E-12
     -0.197 -0.8565E-10 -0.8461E-11
     -0.100 -0.3340E-08 -0.3333E-09
     -0.002 -0.7855E-07 -0.7973E-08
      0.095 -0.1095E-05 -0.1144E-06
      0.192 -0.8715E-05 -0.9620E-06
      0.289 -0.3618E-04 -0.4481E-05
      0.387 -0.5230E-04 -0.9567E-05
      0.484  0.1233E-03  0.2424E-05
      0.581  0.5769E-03  0.5853E-04
      0.678  0.9146E-03  0.1475E-03
      0.776  0.1188E-02  0.2631E-03
      0.873  0.2153E-02  0.4724E-03
      0.970  0.3036E-02  0.7677E-03
      1.067  0.2850E-02  0.1045E-02
      1.165  0.2772E-02  0.1314E-02
      1.262  0.3031E-02  0.1609E-02
      1.359  0.3144E-02  0.1915E-02
      1.456  0.3743E-02  0.2279E-02
      1.554  0.4509E-02  0.2717E-02
      1.651  0.5689E-02  0.3271E-02
      1.748  0.7091E-02  0.3960E-02
      1.845  0.6348E-02  0.4578E-02
      1.943  0.3932E-02  0.4960E-02
      2.040  0.3752E-02  0.5325E-02
      2.137  0.7809E-02  0.6084E-02
      2.234  0.1510E-01  0.7553E-02
      2.332  0.2597E-01  0.1008E-01
      2.429  0.3991E-01  0.1396E-01
      2.526  0.5557E-01  0.1936E-01
      2.623  0.7510E-01  0.2667E-01
      2.721  0.9581E-01  0.3599E-01
      2.818  0.1057E+00  0.4627E-01
      2.915  0.1016E+00  0.5615E-01
      3.012  0.9382E-01  0.6527E-01
      3.110  0.8607E-01  0.7364E-01
      3.207  0.7558E-01  0.8099E-01
      3.304  0.6998E-01  0.8780E-01
      3.401  0.7631E-01  0.9522E-01
      3.499  0.8383E-01  0.1034E+00
      3.596  0.8420E-01  0.1116E+00
      3.693  0.8385E-01  0.1197E+00
      3.790  0.8982E-01  0.1285E+00
      3.888  0.1024E+00  0.1384E+00
      3.985  0.1183E+00  0.1499E+00
      4.082  0.1332E+00  0.1629E+00
      4.179  0.1386E+00  0.1763E+00
      4.277  0.1259E+00  0.1886E+00
      4.374  0.1043E+00  0.1987E+00
      4.471  0.9220E-01  0.2077E+00
      4.568  0.8723E-01  0.2162E+00
      4.666  0.8354E-01  0.2243E+00
      4.763  0.9133E-01  0.2332E+00
      4.860  0.1071E+00  0.2436E+00
      4.957  0.1098E+00  0.2543E+00
      5.055  0.9981E-01  0.2640E+00
      5.152  0.9305E-01  0.2730E+00
      5.249  0.8874E-01  0.2817E+00
      5.346  0.8862E-01  0.2903E+00
      5.444  0.9956E-01  0.3000E+00
      5.541  0.1161E+00  0.3113E+00
      5.638  0.1283E+00  0.3237E+00
      5.735  0.1186E+00  0.3353E+00
      5.833  0.8339E-01  0.3434E+00
      5.930  0.4495E-01  0.3478E+00
      6.027  0.1925E-01  0.3496E+00
      6.124  0.6552E-02  0.3503E+00
      6.222  0.3027E-02  0.3506E+00
      6.319  0.3977E-02  0.3509E+00
      6.416  0.5706E-02  0.3515E+00
      6.513  0.7795E-02  0.3523E+00
      6.611  0.1198E-01  0.3534E+00
      6.708  0.1605E-01  0.3550E+00
      6.805  0.1453E-01  0.3564E+00
      6.902  0.1014E-01  0.3574E+00
      7.000  0.9115E-02  0.3583E+00
      7.097  0.7859E-02  0.3590E+00
      7.194  0.3107E-02  0.3593E+00
      7.291  0.2586E-04  0.3593E+00
      7.389  0.3455E-02  0.3597E+00
      7.486  0.1360E-01  0.3610E+00
      7.583  0.2270E-01  0.3632E+00
      7.681  0.2090E-01  0.3652E+00
      7.778  0.1292E-01  0.3665E+00
      7.875  0.8403E-02  0.3673E+00
      7.972  0.6973E-02  0.3680E+00
      8.070  0.6447E-02  0.3686E+00
      8.167  0.5420E-02  0.3691E+00
      8.264  0.3971E-02  0.3695E+00
      8.361  0.6414E-02  0.3702E+00
      8.459  0.1222E-01  0.3713E+00
      8.556  0.1440E-01  0.3727E+00
      8.653  0.1097E-01  0.3738E+00
      8.750  0.8414E-02  0.3746E+00
      8.848  0.1236E-01  0.3758E+00
      8.945  0.1850E-01  0.3776E+00
      9.042  0.1757E-01  0.3793E+00
      9.139  0.9618E-02  0.3803E+00
      9.237  0.3934E-02  0.3807E+00
      9.334  0.4407E-02  0.3811E+00
      9.431  0.5326E-02  0.3816E+00
      9.528  0.2819E-02  0.3819E+00
      9.626  0.2223E-02  0.3821E+00
      9.723  0.9451E-02  0.3830E+00
      9.820  0.2003E-01  0.3850E+00
      9.917  0.2162E-01  0.3871E+00
     10.015  0.1169E-01  0.3882E+00
     10.112  0.2380E-02  0.3884E+00
     10.209  0.1736E-02  0.3886E+00
     10.306  0.6411E-02  0.3892E+00
     10.404  0.1040E-01  0.3902E+00
     10.501  0.1081E-01  0.3913E+00
     10.598  0.8831E-02  0.3921E+00
     10.695  0.6030E-02  0.3927E+00
     10.793  0.4208E-02  0.3931E+00
     10.890  0.5102E-02  0.3936E+00
     10.987  0.5941E-02  0.3942E+00
     11.084  0.5128E-02  0.3947E+00
     11.182  0.6300E-02  0.3953E+00
     11.279  0.1211E-01  0.3965E+00
     11.376  0.1946E-01  0.3984E+00
     11.473  0.2079E-01  0.4004E+00
     11.571  0.1555E-01  0.4019E+00
     11.668  0.1071E-01  0.4030E+00
     11.765  0.7938E-02  0.4037E+00
     11.862  0.7389E-02  0.4045E+00
     11.960  0.1062E-01  0.4055E+00
     12.057  0.1454E-01  0.4069E+00
     12.154  0.1419E-01  0.4083E+00
     12.251  0.1021E-01  0.4093E+00
     12.349  0.8290E-02  0.4101E+00
     12.446  0.1175E-01  0.4112E+00
     12.543  0.1792E-01  0.4130E+00
     12.640  0.1841E-01  0.4148E+00
     12.738  0.1018E-01  0.4158E+00
     12.835  0.1931E-02  0.4159E+00
     12.932  0.1191E-02  0.4161E+00
     13.029  0.6338E-02  0.4167E+00
     13.127  0.1261E-01  0.4179E+00
     13.224  0.1724E-01  0.4196E+00
     13.321  0.1697E-01  0.4212E+00
     13.418  0.1186E-01  0.4224E+00
     13.516  0.8572E-02  0.4232E+00
     13.613  0.9750E-02  0.4242E+00
     13.710  0.1234E-01  0.4254E+00
     13.807  0.1237E-01  0.4266E+00
     13.905  0.8506E-02  0.4274E+00
     14.002  0.6073E-02  0.4280E+00
     14.099  0.9699E-02  0.4289E+00
     14.196  0.1584E-01  0.4305E+00
     14.294  0.1883E-01  0.4323E+00
     14.391  0.1663E-01  0.4339E+00
     14.488  0.1071E-01  0.4350E+00
     14.585  0.8880E-02  0.4358E+00
     14.683  0.1880E-01  0.4377E+00
     14.780  0.3042E-01  0.4406E+00
     14.877  0.2765E-01  0.4433E+00
     14.974  0.1594E-01  0.4448E+00
     15.072  0.1027E-01  0.4458E+00
     15.169  0.1170E-01  0.4470E+00
     15.266  0.1244E-01  0.4482E+00
     15.363  0.9297E-02  0.4491E+00
     15.461  0.7177E-02  0.4498E+00
     15.558  0.1030E-01  0.4508E+00
     15.655  0.1559E-01  0.4523E+00
     15.753  0.2070E-01  0.4543E+00
     15.850  0.2395E-01  0.4567E+00
     15.947  0.2230E-01  0.4588E+00
     16.044  0.1638E-01  0.4604E+00
     16.142  0.9017E-02  0.4613E+00
     16.239  0.6251E-02  0.4619E+00
     16.336  0.1258E-01  0.4631E+00
     16.433  0.2340E-01  0.4654E+00
     16.531  0.2927E-01  0.4682E+00
     16.628  0.2552E-01  0.4707E+00
     16.725  0.1800E-01  0.4725E+00
     16.822  0.1521E-01  0.4740E+00
     16.920  0.1366E-01  0.4753E+00
     17.017  0.7807E-02  0.4760E+00
     17.114  0.6231E-02  0.4767E+00
     17.211  0.1692E-01  0.4783E+00
     17.309  0.3149E-01  0.4814E+00
     17.406  0.3581E-01  0.4848E+00
     17.503  0.2813E-01  0.4876E+00
     17.600  0.1838E-01  0.4894E+00
     17.698  0.1371E-01  0.4907E+00
     17.795  0.1513E-01  0.4922E+00
     17.892  0.1927E-01  0.4940E+00
     17.989  0.1998E-01  0.4960E+00
     18.087  0.1574E-01  0.4975E+00
     18.184  0.1083E-01  0.4986E+00
     18.281  0.8955E-02  0.4994E+00
     18.378  0.1085E-01  0.5005E+00
     18.476  0.1792E-01  0.5022E+00
     18.573  0.2803E-01  0.5050E+00
     18.670  0.3107E-01  0.5080E+00
     18.767  0.2407E-01  0.5103E+00
     18.865  0.1806E-01  0.5121E+00
     18.962  0.2021E-01  0.5141E+00
     19.059  0.2545E-01  0.5165E+00
     19.156  0.2575E-01  0.5190E+00
     19.254  0.1856E-01  0.5208E+00
     19.351  0.1070E-01  0.5219E+00
     19.448  0.9980E-02  0.5228E+00
     19.545  0.1607E-01  0.5244E+00
     19.643  0.2448E-01  0.5268E+00
     19.740  0.2833E-01  0.5295E+00
     19.837  0.2300E-01  0.5318E+00
     19.934  0.1287E-01  0.5330E+00
     20.032  0.6194E-02  0.5336E+00
     20.129  0.5752E-02  0.5342E+00
     20.226  0.9583E-02  0.5351E+00
     20.323  0.1761E-01  0.5368E+00
     20.421  0.2546E-01  0.5393E+00
     20.518  0.2631E-01  0.5419E+00
     20.615  0.2162E-01  0.5440E+00
     20.712  0.1569E-01  0.5455E+00
     20.810  0.1218E-01  0.5467E+00
     20.907  0.1307E-01  0.5480E+00
     21.004  0.1426E-01  0.5493E+00
     21.101  0.1365E-01  0.5507E+00
     21.199  0.1580E-01  0.5522E+00
     21.296  0.1968E-01  0.5541E+00
     21.393  0.2027E-01  0.5561E+00
     21.490  0.2160E-01  0.5582E+00
     21.588  0.2479E-01  0.5606E+00
     21.685  0.2180E-01  0.5627E+00
     21.782  0.1381E-01  0.5641E+00
     21.879  0.1004E-01  0.5650E+00
     21.977  0.1386E-01  0.5664E+00
     22.074  0.2032E-01  0.5684E+00
     22.171  0.2249E-01  0.5706E+00
     22.268  0.2056E-01  0.5726E+00
     22.366  0.1692E-01  0.5742E+00
     22.463  0.1228E-01  0.5754E+00
     22.560  0.1095E-01  0.5765E+00
     22.657  0.1353E-01  0.5778E+00
     22.755  0.1495E-01  0.5792E+00
     22.852  0.1371E-01  0.5806E+00
     22.949  0.1068E-01  0.5816E+00
     23.046  0.6899E-02  0.5823E+00
     23.144  0.4499E-02  0.5827E+00
     23.241  0.6730E-02  0.5834E+00
     23.338  0.1407E-01  0.5847E+00
     23.435  0.2023E-01  0.5867E+00
     23.533  0.2021E-01  0.5887E+00
     23.630  0.1617E-01  0.5902E+00
     23.727  0.1269E-01  0.5915E+00
     23.825  0.1052E-01  0.5925E+00
     23.922  0.6548E-02  0.5931E+00
     24.019  0.2063E-02  0.5933E+00
     24.116  0.8907E-03  0.5934E+00
     24.214  0.2613E-02  0.5937E+00
     24.311  0.4679E-02  0.5941E+00
     24.408  0.5637E-02  0.5947E+00
     24.505  0.6411E-02  0.5953E+00
     24.603  0.7282E-02  0.5960E+00
     24.700  0.5999E-02  0.5966E+00
     24.797  0.4141E-02  0.5970E+00
     24.894  0.5705E-02  0.5976E+00
     24.992  0.8292E-02  0.5984E+00
     25.089  0.7318E-02  0.5991E+00
     25.186  0.3737E-02  0.5994E+00
     25.283  0.8713E-03  0.5995E+00
     25.381 -0.2092E-03  0.5995E+00
     25.478 -0.1454E-03  0.5995E+00
     25.575  0.4759E-03  0.5995E+00
     25.672  0.1236E-02  0.5996E+00
     25.770  0.1610E-02  0.5998E+00
     25.867  0.1346E-02  0.5999E+00
     25.964  0.6614E-03  0.6000E+00
     26.061  0.1036E-03  0.6000E+00
     26.159 -0.6317E-04  0.6000E+00
     26.256 -0.3808E-04  0.6000E+00
     26.353 -0.8885E-05  0.6000E+00
     26.450 -0.1103E-05  0.6000E+00
     26.548 -0.7881E-07  0.6000E+00
     26.645 -0.3345E-08  0.6000E+00
     26.742 -0.8570E-10  0.6000E+00
     26.839 -0.1339E-11  0.6000E+00
     26.937 -0.1282E-13  0.6000E+00
     27.034 -0.7611E-16  0.6000E+00
     27.131  0.0000E+00  0.6000E+00
     27.228  0.0000E+00  0.6000E+00
     27.326  0.0000E+00  0.6000E+00
     27.423  0.0000E+00  0.6000E+00
     27.520  0.0000E+00  0.6000E+00
     27.617  0.0000E+00  0.6000E+00
     27.715  0.0000E+00  0.6000E+00
     27.812  0.0000E+00  0.6000E+00
