    1    1   30    1
  0.1958695E+02  0.3025710E-09  0.3025710E-09  0.3025710E-09  0.5000000E-15
  1.000000000000000E-004
  CAR 
 unknown system                          
     10     60      9
 
  0.6250000E-01  0.6250000E-01  0.6250000E-01  0.3906250E-02
    1        0.635978
    2        3.890727
    3        3.951975
    4        3.951975
    5        4.916997
    6        4.916997
    7       22.428467
    8       24.667523
    9       25.645979
 
  0.1875000E+00  0.6250000E-01  0.6250000E-01  0.1171875E-01
    1        1.200315
    2        3.749550
    3        4.089694
    4        4.107094
    5        4.787192
    6        4.994544
    7       21.538803
    8       22.818801
    9       24.936566
 
  0.3125000E+00  0.6250000E-01  0.6250000E-01  0.1171875E-01
    1        2.159864
    2        3.916687
    3        4.137767
    4        4.146723
    5        4.943840
    6        5.359339
    7       17.252846
    8       22.338489
    9       24.388576
 
  0.4375000E+00  0.6250000E-01  0.6250000E-01  0.1171875E-01
    1        2.361998
    2        3.929018
    3        4.001914
    4        5.138447
    5        5.423170
    6        6.428853
    7       13.105397
    8       21.768796
    9       23.320423
 
 -0.4375000E+00  0.6250000E-01  0.6250000E-01  0.1171875E-01
    1        2.332095
    2        3.861535
    3        3.961671
    4        5.366459
    5        5.681321
    6        7.597316
    7       11.228773
    8       21.647751
    9       23.388242
 
 -0.3125000E+00  0.6250000E-01  0.6250000E-01  0.1171875E-01
    1        2.359642
    2        3.963863
    3        4.067890
    4        4.684910
    5        5.499910
    6        5.782448
    7       14.399342
    8       22.179088
    9       23.577826
 
 -0.1875000E+00  0.6250000E-01  0.6250000E-01  0.1171875E-01
    1        1.877501
    2        3.740102
    3        4.144700
    4        4.174032
    5        4.906671
    6        5.123558
    7       18.727241
    8       22.955519
    9       24.266819
 
 -0.6250000E-01  0.6250000E-01  0.6250000E-01  0.1171875E-01
    1        0.926624
    2        3.783065
    3        4.049704
    4        4.052707
    5        4.803550
    6        4.975894
    7       22.379344
    8       23.615803
    9       24.905653
 
  0.1875000E+00  0.1875000E+00  0.6250000E-01  0.1171875E-01
    1        1.471040
    2        3.573363
    3        4.234075
    4        4.249521
    5        4.656184
    6        5.086121
    7       21.815432
    8       23.056849
    9       23.554653
 
  0.3125000E+00  0.1875000E+00  0.6250000E-01  0.2343750E-01
    1        2.329503
    2        3.387068
    3        4.119548
    4        4.492864
    5        4.908701
    6        5.439005
    7       19.118430
    8       20.957089
    9       23.489637
 
  0.4375000E+00  0.1875000E+00  0.6250000E-01  0.2343750E-01
    1        2.707764
    2        3.757090
    3        3.966235
    4        4.411311
    5        5.491952
    6        6.749136
    7       14.766027
    8       20.520571
    9       21.608553
 
 -0.4375000E+00  0.1875000E+00  0.6250000E-01  0.2343750E-01
    1        2.678222
    2        3.636264
    3        4.265501
    4        4.557251
    5        5.641884
    6        8.963544
    7       11.368259
    8       20.123550
    9       20.918541
 
 -0.3125000E+00  0.1875000E+00  0.6250000E-01  0.2343750E-01
    1        2.748477
    2        3.723995
    3        4.215843
    4        4.394957
    5        5.360120
    6        7.559972
    7       13.492043
    8       19.446243
    9       22.077543
 
 -0.1875000E+00  0.1875000E+00  0.6250000E-01  0.2343750E-01
    1        2.631321
    2        3.517257
    3        4.003596
    4        4.468727
    5        4.800024
    6        5.944735
    7       17.665566
    8       19.630536
    9       23.790387
 
 -0.6250000E-01  0.1875000E+00  0.6250000E-01  0.2343750E-01
    1        1.708479
    2        3.602894
    3        4.177023
    4        4.249472
    5        4.718504
    6        5.161366
    7       20.336864
    8       22.007085
    9       24.585166
 
  0.3125000E+00  0.3125000E+00  0.6250000E-01  0.1171875E-01
    1        2.589973
    2        3.038475
    3        4.562730
    4        4.861966
    5        5.319987
    6        5.399085
    7       19.437293
    8       20.410700
    9       21.105854
 
  0.4375000E+00  0.3125000E+00  0.6250000E-01  0.2343750E-01
    1        2.749337
    2        2.940901
    3        4.498815
    4        5.132023
    5        5.535942
    6        7.006301
    7       16.866252
    8       18.554019
    9       18.850480
 
 -0.4375000E+00  0.3125000E+00  0.6250000E-01  0.2343750E-01
    1        2.828396
    2        3.239197
    3        4.251578
    4        4.906812
    5        5.689030
    6        9.736470
    7       13.034735
    8       16.821990
    9       18.995275
 
 -0.3125000E+00  0.3125000E+00  0.6250000E-01  0.2343750E-01
    1        3.114086
    2        3.518612
    3        3.890019
    4        4.748220
    5        5.381653
    6        9.866887
    7       13.271855
    8       15.592044
    9       20.372291
 
 -0.1875000E+00  0.3125000E+00  0.6250000E-01  0.2343750E-01
    1        3.131978
    2        3.610690
    3        3.778245
    4        4.602493
    5        5.058368
    6        7.545834
    7       15.287402
    8       17.319227
    9       22.106738
 
 -0.6250000E-01  0.3125000E+00  0.6250000E-01  0.2343750E-01
    1        2.465619
    2        3.938881
    3        4.049016
    4        4.231197
    5        5.174915
    6        5.846265
    7       15.932094
    8       21.467946
    9       23.376533
 
  0.4375000E+00  0.4375000E+00  0.6250000E-01  0.1171875E-01
    1        2.456788
    2        2.619106
    3        5.462947
    4        5.471498
    5        5.717881
    6        7.755495
    7       16.030218
    8       17.413543
    9       18.099418
 
 -0.4375000E+00  0.4375000E+00  0.6250000E-01  0.2343750E-01
    1        2.504053
    2        2.673758
    3        5.161496
    4        5.459150
    5        5.820329
    6        9.828108
    7       14.207905
    8       15.823904
    9       17.376921
 
 -0.3125000E+00  0.4375000E+00  0.6250000E-01  0.2343750E-01
    1        2.788825
    2        3.138649
    3        4.398515
    4        5.074250
    5        5.659524
    6       11.407513
    7       12.624231
    8       14.758091
    9       18.652889
 
 -0.1875000E+00  0.4375000E+00  0.6250000E-01  0.2343750E-01
    1        2.933678
    2        3.499042
    3        4.208960
    4        4.516914
    5        5.540078
    6        9.874558
    7       11.639950
    8       17.829661
    9       20.547644
 
 -0.6250000E-01  0.4375000E+00  0.6250000E-01  0.2343750E-01
    1        2.473625
    2        3.803216
    3        4.081939
    4        4.900211
    5        5.601485
    6        7.581115
    7       12.066873
    8       21.273050
    9       22.277869
 
 -0.4375000E+00 -0.4375000E+00  0.6250000E-01  0.1171875E-01
    1        2.354012
    2        2.524552
    3        5.601178
    4        5.685496
    5        5.832535
    6        9.092212
    7       14.208605
    8       16.901375
    9       17.573569
 
 -0.3125000E+00 -0.4375000E+00  0.6250000E-01  0.2343750E-01
    1        2.606649
    2        2.765561
    3        4.889221
    4        5.387253
    5        5.702481
    6        8.437766
    7       15.773100
    8       16.578740
    9       17.840430
 
 -0.1875000E+00 -0.4375000E+00  0.6250000E-01  0.2343750E-01
    1        2.826462
    2        3.458331
    3        4.070122
    4        4.657033
    5        5.654936
    6        8.094286
    7       13.778904
    8       19.225685
    9       19.650684
 
 -0.3125000E+00 -0.3125000E+00  0.6250000E-01  0.1171875E-01
    1        2.599675
    2        2.797892
    3        5.058366
    4        5.202072
    5        5.563981
    6        6.325887
    7       18.180195
    8       18.628683
    9       19.081146
 
 -0.1875000E+00 -0.3125000E+00  0.6250000E-01  0.2343750E-01
    1        2.750547
    2        3.158404
    3        4.154094
    4        4.799930
    5        5.276803
    6        5.968851
    7       17.945706
    8       19.763548
    9       21.252905
 
 -0.1875000E+00 -0.1875000E+00  0.6250000E-01  0.1171875E-01
    1        2.141707
    2        3.310093
    3        4.329449
    4        4.528328
    5        4.785223
    6        5.233795
    7       20.692357
    8       21.959838
    9       22.825375
 
  0.1875000E+00  0.1875000E+00  0.1875000E+00  0.3906250E-02
    1        1.442299
    2        3.784737
    3        4.106597
    4        4.106597
    5        4.915942
    6        4.915942
    7       20.110203
    8       23.180671
    9       25.811876
 
  0.3125000E+00  0.1875000E+00  0.1875000E+00  0.1171875E-01
    1        2.134723
    2        3.597238
    3        4.143807
    4        4.312035
    5        4.664419
    6        5.461301
    7       18.937010
    8       20.804285
    9       25.036847
 
  0.4375000E+00  0.1875000E+00  0.1875000E+00  0.1171875E-01
    1        2.919665
    2        3.614514
    3        3.974392
    4        4.436576
    5        4.818446
    6        6.623137
    7       16.389215
    8       18.397264
    9       23.790185
 
 -0.4375000E+00  0.1875000E+00  0.1875000E+00  0.1171875E-01
    1        2.820499
    2        3.639689
    3        4.334791
    4        4.389749
    5        5.397447
    6        8.598975
    7       12.437363
    8       18.522987
    9       22.810540
 
 -0.3125000E+00  0.1875000E+00  0.1875000E+00  0.1171875E-01
    1        2.723728
    2        3.604264
    3        4.306089
    4        4.389714
    5        5.709525
    6        8.520920
    7       12.323468
    8       19.577220
    9       21.318266
 
 -0.1875000E+00  0.1875000E+00  0.1875000E+00  0.1171875E-01
    1        2.706486
    2        3.436290
    3        4.050456
    4        4.529147
    5        5.564166
    6        6.155619
    7       16.261971
    8       21.114899
    9       21.308047
 
  0.3125000E+00  0.3125000E+00  0.1875000E+00  0.1171875E-01
    1        2.377813
    2        3.619732
    3        4.057024
    4        4.315062
    5        5.299248
    6        5.355724
    7       17.441350
    8       22.590844
    9       22.614529
 
  0.4375000E+00  0.3125000E+00  0.1875000E+00  0.2343750E-01
    1        2.979182
    2        3.412050
    3        3.816440
    4        4.733762
    5        5.124350
    6        6.701545
    7       16.527620
    8       18.520610
    9       21.564738
 
 -0.4375000E+00  0.3125000E+00  0.1875000E+00  0.2343750E-01
    1        3.267998
    2        3.428287
    3        3.674904
    4        4.826598
    5        5.360108
    6        8.801958
    7       14.359871
    8       16.450016
    9       19.685021
 
 -0.3125000E+00  0.3125000E+00  0.1875000E+00  0.2343750E-01
    1        3.081521
    2        3.350339
    3        3.973346
    4        4.757961
    5        5.621230
    6       10.606408
    7       11.901900
    8       17.290136
    9       18.305325
 
 -0.1875000E+00  0.3125000E+00  0.1875000E+00  0.2343750E-01
    1        2.993879
    2        3.222411
    3        3.958640
    4        5.019489
    5        5.419226
    6        7.860389
    7       15.545936
    8       17.534110
    9       19.135230
 
  0.4375000E+00  0.4375000E+00  0.1875000E+00  0.1171875E-01
    1        2.745950
    2        3.178523
    3        4.338215
    4        4.796204
    5        5.707090
    6        7.407748
    7       15.226959
    8       18.909599
    9       19.890375
 
 -0.4375000E+00  0.4375000E+00  0.1875000E+00  0.2343750E-01
    1        2.868094
    2        3.039888
    3        4.261559
    4        5.181587
    5        5.655915
    6        9.367523
    7       14.766848
    8       16.413245
    9       17.193034
 
 -0.3125000E+00  0.4375000E+00  0.1875000E+00  0.2343750E-01
    1        3.016469
    2        3.345420
    3        3.869221
    4        4.948599
    5        5.814703
    6       12.091190
    7       13.237699
    8       14.714830
    9       16.018010
 
 -0.1875000E+00  0.4375000E+00  0.1875000E+00  0.2343750E-01
    1        3.151405
    2        3.351693
    3        3.759895
    4        4.939437
    5        5.635623
    6       10.377689
    7       13.649204
    8       15.773023
    9       17.370667
 
 -0.4375000E+00 -0.4375000E+00  0.1875000E+00  0.1171875E-01
    1        2.589291
    2        2.857038
    3        4.900430
    4        5.289097
    5        5.724970
    6       10.440987
    7       13.804917
    8       14.755827
    9       18.571990
 
 -0.3125000E+00 -0.4375000E+00  0.1875000E+00  0.2343750E-01
    1        2.763486
    2        2.957190
    3        4.493906
    4        5.191739
    5        5.816009
    6       10.907296
    7       14.061254
    8       14.900728
    9       16.645645
 
 -0.3125000E+00 -0.3125000E+00  0.1875000E+00  0.1171875E-01
    1        2.662643
    2        2.965267
    3        4.683616
    4        5.074848
    5        5.755756
    6        8.947519
    7       14.408328
    8       16.527931
    9       19.022705
 
  0.3125000E+00  0.3125000E+00  0.3125000E+00  0.3906250E-02
    1        2.230987
    2        4.056362
    3        4.056362
    4        4.521913
    5        5.243468
    6        5.243468
    7       15.731513
    8       22.529994
    9       25.138463
 
  0.4375000E+00  0.3125000E+00  0.3125000E+00  0.1171875E-01
    1        2.589241
    2        3.877798
    3        4.183104
    4        4.373270
    5        5.135013
    6        6.546173
    7       14.616298
    8       20.388850
    9       23.314770
 
 -0.4375000E+00  0.3125000E+00  0.3125000E+00  0.1171875E-01
    1        3.141074
    2        3.617390
    3        3.907998
    4        4.580348
    5        5.159836
    6        8.574072
    7       14.209640
    8       16.318812
    9       22.676983
 
 -0.3125000E+00  0.3125000E+00  0.3125000E+00  0.1171875E-01
    1        2.902396
    2        3.389379
    3        4.174023
    4        4.888529
    5        5.486448
    6       11.121482
    7       12.266974
    8       15.038462
    9       20.354194
 
  0.4375000E+00  0.4375000E+00  0.3125000E+00  0.1171875E-01
    1        2.535803
    2        3.805294
    3        4.183927
    4        4.477508
    5        5.665961
    6        6.999328
    7       13.257215
    8       21.540624
    9       22.291637
 
 -0.4375000E+00  0.4375000E+00  0.3125000E+00  0.2343750E-01
    1        2.932764
    2        3.509236
    3        4.101911
    4        4.552699
    5        5.548321
    6        8.938822
    7       12.568944
    8       18.672717
    9       19.822637
 
 -0.3125000E+00  0.4375000E+00  0.3125000E+00  0.2343750E-01
    1        3.076076
    2        3.379959
    3        3.883013
    4        4.889420
    5        5.635220
    6       11.447099
    7       12.524021
    8       15.127554
    9       18.009431
 
 -0.4375000E+00 -0.4375000E+00  0.3125000E+00  0.1171875E-01
    1        2.859798
    2        3.445326
    3        4.210831
    4        4.651316
    5        5.629310
    6       10.243132
    7       11.674722
    8       17.213796
    9       20.673159
 
  0.4375000E+00  0.4375000E+00  0.4375000E+00  0.3906250E-02
    1        2.275875
    2        3.925340
    3        3.925340
    4        5.618828
    5        5.618828
    6        6.666714
    7       11.937543
    8       21.807285
    9       24.097637
 
 -0.4375000E+00  0.4375000E+00  0.4375000E+00  0.1171875E-01
    1        2.522016
    2        3.751066
    3        4.106028
    4        4.902632
    5        5.598945
    6        8.387919
    7       11.302300
    8       20.624733
    9       22.629007
