 vasp.5.3.5 31Mar14 (build Jan 09 2015 16:57:47) complex                        
  
 executed on             LinuxIFC date 2015.03.24  14:26:00
 serial version


--------------------------------------------------------------------------------------------------------


 INCAR:
 POTCAR:    PAW_PBE Pd 04Jan2005                  
 POTCAR:    PAW_PBE Pd 04Jan2005                  
   VRHFIN =Pd : s1 d9                                                           
   LEXCH  = PE                                                                  
   EATOM  =   809.7530 eV,   59.5152 Ry                                         
                                                                                
   TITEL  = PAW_PBE Pd 04Jan2005                                                
   LULTRA =        F    use ultrasoft PP ?                                      
   IUNSCR =        1    unscreen: 0-lin 1-nonlin 2-no                           
   RPACOR =    2.000    partial core radius                                     
   POMASS =  106.420; ZVAL   =   10.000    mass and valenz                      
   RCORE  =    2.600    outmost cutoff radius                                   
   RWIGS  =    2.710; RWIGS  =    1.434    wigner-seitz radius (au A)           
   ENMAX  =  250.925; ENMIN  =  188.194 eV                                      
   ICORE  =        3    local potential                                         
   LCOR   =        T    correct aug charges                                     
   LPAW   =        T    paw PP                                                  
   EAUG   =  416.230                                                            
   DEXC   =    0.000                                                            
   RMAX   =    2.653    core radius for proj-oper                               
   RAUG   =    1.300    factor for augmentation sphere                          
   RDEP   =    2.734    radius for radial grids                                 
   RDEPT  =    2.103    core radius for aug-charge                              
                                                                                
   Atomic configuration                                                         
   12 entries                                                                   
     n  l   j            E        occ.                                          
     1  0  0.50    -24164.6631   2.0000                                         
     2  0  0.50     -3530.9218   2.0000                                         
     2  1  1.50     -3165.6822   6.0000                                         
     3  0  0.50      -639.4577   2.0000                                         
     3  1  1.50      -519.4532   6.0000                                         
     3  2  2.50      -328.9757  10.0000                                         
     4  0  0.50       -88.7014   2.0000                                         
     4  1  1.50       -54.4540   6.0000                                         
     4  2  2.50        -6.6878   9.0000                                         
     5  0  0.50        -4.3543   1.0000                                         
     5  1  0.50        -1.3606   0.0000                                         
     4  3  2.50        -1.3606   0.0000                                         
   Description                                                                  
     l       E           TYP  RCUT    TYP  RCUT                                 
     2     -6.6878251     23  2.400                                             
     2     -8.0484077     23  2.400                                             
     0     -4.3542939     23  2.400                                             
     0      4.3406793     23  2.400                                             
     1     -4.0817478     23  2.600                                             
     1     15.8380318     23  2.600                                             
     3     -4.0817478     23  2.400                                             
  local pseudopotential read in
  partial core-charges read in
  partial kinetic energy density read in
  atomic valenz-charges read in
  non local Contribution for L=           2  read in
    real space projection operators read in
  non local Contribution for L=           2  read in
    real space projection operators read in
  non local Contribution for L=           0  read in
    real space projection operators read in
  non local Contribution for L=           0  read in
    real space projection operators read in
  non local Contribution for L=           1  read in
    real space projection operators read in
  non local Contribution for L=           1  read in
    real space projection operators read in
    PAW grid and wavefunctions read in
 
   number of l-projection  operators is LMAX  =           6
   number of lm-projection operators is LMMAX =          18
 
  PAW_PBE Pd 04Jan2005                  :
 energy of atom  1       EATOM= -809.7530
 kinetic energy error for atom=    0.0269 (will be added to EATOM!!)
 
 
 POSCAR: Pd                                      
  positions in cartesian coordinates
  No initial velocities read in
 exchange correlation table for  LEXCH =        8
   RHO(1)=    0.500       N(1)  =     2000
   RHO(2)=  100.500       N(2)  =     4000

 VTST: version 3.1, (03/28/14)

 CHAIN: initializing optimizer
 
 OPT: Using VASP Conjugate-Gradient optimizer
 CHAIN: Read ICHAIN            0
 
 POSCAR: Pd                                      
  positions in cartesian coordinates
  No initial velocities read in
 


--------------------------------------------------------------------------------------------------------


 ion  position               nearest neighbor table
   1  0.000  0.000  0.000-
 
  LATTYP: Found a face centered cubic cell.
 ALAT       =     4.2790000000
  
  Lattice vectors:
  
 A1 = (   3.0257099167,   0.0000000000,   0.0000000000)
 A2 = (   1.5128549583,   2.6203416523,   0.0000000000)
 A3 = (   1.5128549583,   0.8734472174,   2.4704818019)


Analysis of symmetry for initial positions (statically):
=====================================================================
 Subroutine PRICEL returns:
 Original cell was already a primitive cell.
 

 Routine SETGRP: Setting up the symmetry group for a 
 face centered cubic supercell.


 Subroutine GETGRP returns: Found 48 space group operations
 (whereof 48 operations were pure point group operations)
 out of a pool of 48 trial point group operations.


The static configuration has the point symmetry O_h .


Analysis of symmetry for dynamics (positions and initial velocities):
=====================================================================
 Subroutine PRICEL returns:
 Original cell was already a primitive cell.
 

 Routine SETGRP: Setting up the symmetry group for a 
 face centered cubic supercell.


 Subroutine GETGRP returns: Found 48 space group operations
 (whereof 48 operations were pure point group operations)
 out of a pool of 48 trial point group operations.


The dynamic configuration has the point symmetry O_h .
 
 
 KPOINTS: KPOINTS created by Atomic Simulation Env

Automatic generation of k-mesh.
Space group operators:
 irot       det(A)        alpha          n_x          n_y          n_z        tau_x        tau_y        tau_z
    1     1.000000     0.000000     1.000000     0.000000     0.000000     0.000000     0.000000     0.000000
    2    -1.000000     0.000000     1.000000     0.000000     0.000000     0.000000     0.000000     0.000000
    3     1.000000   120.000000    -0.816497    -0.471405    -0.333333     0.000000     0.000000     0.000000
    4    -1.000000   120.000000    -0.816497    -0.471405    -0.333333     0.000000     0.000000     0.000000
    5     1.000000   120.000000     0.816497     0.471405     0.333333     0.000000     0.000000     0.000000
    6    -1.000000   120.000000     0.816497     0.471405     0.333333     0.000000     0.000000     0.000000
    7     1.000000    90.000000    -0.707107    -0.408248     0.577350     0.000000     0.000000     0.000000
    8    -1.000000    90.000000    -0.707107    -0.408248     0.577350     0.000000     0.000000     0.000000
    9     1.000000   180.000000     1.000000     0.000000     0.000000     0.000000     0.000000     0.000000
   10    -1.000000   180.000000     1.000000     0.000000     0.000000     0.000000     0.000000     0.000000
   11     1.000000    90.000000     0.707107    -0.408248     0.577350     0.000000     0.000000     0.000000
   12    -1.000000    90.000000     0.707107    -0.408248     0.577350     0.000000     0.000000     0.000000
   13     1.000000   180.000000     0.707107     0.408248    -0.577350     0.000000     0.000000     0.000000
   14    -1.000000   180.000000     0.707107     0.408248    -0.577350     0.000000     0.000000     0.000000
   15     1.000000   120.000000     0.816497    -0.471405    -0.333333     0.000000     0.000000     0.000000
   16    -1.000000   120.000000     0.816497    -0.471405    -0.333333     0.000000     0.000000     0.000000
   17     1.000000   120.000000     0.000000    -0.942809     0.333333     0.000000     0.000000     0.000000
   18    -1.000000   120.000000     0.000000    -0.942809     0.333333     0.000000     0.000000     0.000000
   19     1.000000    90.000000     0.707107     0.408248    -0.577350     0.000000     0.000000     0.000000
   20    -1.000000    90.000000     0.707107     0.408248    -0.577350     0.000000     0.000000     0.000000
   21     1.000000    90.000000     0.000000    -0.816497    -0.577350     0.000000     0.000000     0.000000
   22    -1.000000    90.000000     0.000000    -0.816497    -0.577350     0.000000     0.000000     0.000000
   23     1.000000   180.000000     0.500000     0.866025     0.000000     0.000000     0.000000     0.000000
   24    -1.000000   180.000000     0.500000     0.866025     0.000000     0.000000     0.000000     0.000000
   25     1.000000   120.000000     0.000000     0.942809    -0.333333     0.000000     0.000000     0.000000
   26    -1.000000   120.000000     0.000000     0.942809    -0.333333     0.000000     0.000000     0.000000
   27     1.000000   120.000000     0.000000     0.000000    -1.000000     0.000000     0.000000     0.000000
   28    -1.000000   120.000000     0.000000     0.000000    -1.000000     0.000000     0.000000     0.000000
   29     1.000000   180.000000     0.000000    -0.816497    -0.577350     0.000000     0.000000     0.000000
   30    -1.000000   180.000000     0.000000    -0.816497    -0.577350     0.000000     0.000000     0.000000
   31     1.000000    90.000000    -0.707107     0.408248    -0.577350     0.000000     0.000000     0.000000
   32    -1.000000    90.000000    -0.707107     0.408248    -0.577350     0.000000     0.000000     0.000000
   33     1.000000   179.999999     0.500000     0.288675     0.816497     0.000000     0.000000     0.000000
   34    -1.000000   179.999999     0.500000     0.288675     0.816497     0.000000     0.000000     0.000000
   35     1.000000    90.000000     0.000000     0.816497     0.577350     0.000000     0.000000     0.000000
   36    -1.000000    90.000000     0.000000     0.816497     0.577350     0.000000     0.000000     0.000000
   37     1.000000   120.000000    -0.816497     0.471405     0.333333     0.000000     0.000000     0.000000
   38    -1.000000   120.000000    -0.816497     0.471405     0.333333     0.000000     0.000000     0.000000
   39     1.000000   180.000000    -0.707107     0.408248    -0.577350     0.000000     0.000000     0.000000
   40    -1.000000   180.000000    -0.707107     0.408248    -0.577350     0.000000     0.000000     0.000000
   41     1.000000   120.000000     0.000000     0.000000     1.000000     0.000000     0.000000     0.000000
   42    -1.000000   120.000000     0.000000     0.000000     1.000000     0.000000     0.000000     0.000000
   43     1.000000   179.999999     0.000000    -0.577350     0.816497     0.000000     0.000000     0.000000
   44    -1.000000   179.999999     0.000000    -0.577350     0.816497     0.000000     0.000000     0.000000
   45     1.000000   180.000000    -0.500000     0.866025     0.000000     0.000000     0.000000     0.000000
   46    -1.000000   180.000000    -0.500000     0.866025     0.000000     0.000000     0.000000     0.000000
   47     1.000000   179.999999    -0.500000     0.288675     0.816497     0.000000     0.000000     0.000000
   48    -1.000000   179.999999    -0.500000     0.288675     0.816497     0.000000     0.000000     0.000000
 
 Subroutine IBZKPT returns following result:
 ===========================================
 
 Found     60 irreducible k-points:
 
 Following reciprocal coordinates:
            Coordinates               Weight
  0.062500  0.062500  0.062500     96.000000
  0.187500  0.062500  0.062500    288.000000
  0.312500  0.062500  0.062500    288.000000
  0.437500  0.062500  0.062500    288.000000
 -0.437500  0.062500  0.062500    288.000000
 -0.312500  0.062500  0.062500    288.000000
 -0.187500  0.062500  0.062500    288.000000
 -0.062500  0.062500  0.062500    288.000000
  0.187500  0.187500  0.062500    288.000000
  0.312500  0.187500  0.062500    576.000000
  0.437500  0.187500  0.062500    576.000000
 -0.437500  0.187500  0.062500    576.000000
 -0.312500  0.187500  0.062500    576.000000
 -0.187500  0.187500  0.062500    576.000000
 -0.062500  0.187500  0.062500    576.000000
  0.312500  0.312500  0.062500    288.000000
  0.437500  0.312500  0.062500    576.000000
 -0.437500  0.312500  0.062500    576.000000
 -0.312500  0.312500  0.062500    576.000000
 -0.187500  0.312500  0.062500    576.000000
 -0.062500  0.312500  0.062500    576.000000
  0.437500  0.437500  0.062500    288.000000
 -0.437500  0.437500  0.062500    576.000000
 -0.312500  0.437500  0.062500    576.000000
 -0.187500  0.437500  0.062500    576.000000
 -0.062500  0.437500  0.062500    576.000000
 -0.437500 -0.437500  0.062500    288.000000
 -0.312500 -0.437500  0.062500    576.000000
 -0.187500 -0.437500  0.062500    576.000000
 -0.312500 -0.312500  0.062500    288.000000
 -0.187500 -0.312500  0.062500    576.000000
 -0.187500 -0.187500  0.062500    288.000000
  0.187500  0.187500  0.187500     96.000000
  0.312500  0.187500  0.187500    288.000000
  0.437500  0.187500  0.187500    288.000000
 -0.437500  0.187500  0.187500    288.000000
 -0.312500  0.187500  0.187500    288.000000
 -0.187500  0.187500  0.187500    288.000000
  0.312500  0.312500  0.187500    288.000000
  0.437500  0.312500  0.187500    576.000000
 -0.437500  0.312500  0.187500    576.000000
 -0.312500  0.312500  0.187500    576.000000
 -0.187500  0.312500  0.187500    576.000000
  0.437500  0.437500  0.187500    288.000000
 -0.437500  0.437500  0.187500    576.000000
 -0.312500  0.437500  0.187500    576.000000
 -0.187500  0.437500  0.187500    576.000000
 -0.437500 -0.437500  0.187500    288.000000
 -0.312500 -0.437500  0.187500    576.000000
 -0.312500 -0.312500  0.187500    288.000000
  0.312500  0.312500  0.312500     96.000000
  0.437500  0.312500  0.312500    288.000000
 -0.437500  0.312500  0.312500    288.000000
 -0.312500  0.312500  0.312500    288.000000
  0.437500  0.437500  0.312500    288.000000
 -0.437500  0.437500  0.312500    576.000000
 -0.312500  0.437500  0.312500    576.000000
 -0.437500 -0.437500  0.312500    288.000000
  0.437500  0.437500  0.437500     96.000000
 -0.437500  0.437500  0.437500    288.000000
 
 Following cartesian coordinates:
            Coordinates               Weight
  0.020656  0.011926  0.008433     96.000000
  0.061969 -0.011926 -0.008433    288.000000
  0.103282 -0.035778 -0.025299    288.000000
  0.144594 -0.059630 -0.042165    288.000000
 -0.144594  0.107333  0.075896    288.000000
 -0.103282  0.083481  0.059030    288.000000
 -0.061969  0.059630  0.042165    288.000000
 -0.020656  0.035778  0.025299    288.000000
  0.061969  0.035778 -0.025299    288.000000
  0.103282  0.011926 -0.042165    576.000000
  0.144594 -0.011926 -0.059030    576.000000
 -0.144594  0.155037  0.059030    576.000000
 -0.103282  0.131185  0.042165    576.000000
 -0.061969  0.107333  0.025299    576.000000
 -0.020656  0.083481  0.008433    576.000000
  0.103282  0.059630 -0.059030    288.000000
  0.144594  0.035778 -0.075896    576.000000
 -0.144594  0.202741  0.042165    576.000000
 -0.103282  0.178889  0.025299    576.000000
 -0.061969  0.155037  0.008433    576.000000
 -0.020656  0.131185 -0.008433    576.000000
  0.144594  0.083481 -0.092762    288.000000
 -0.144594  0.250444  0.025299    576.000000
 -0.103282  0.226593  0.008433    576.000000
 -0.061969  0.202741 -0.008433    576.000000
 -0.020656  0.178889 -0.025299    576.000000
 -0.144594 -0.083481  0.143359    288.000000
 -0.103282 -0.107333  0.126494    576.000000
 -0.061969 -0.131185  0.109628    576.000000
 -0.103282 -0.059630  0.109628    288.000000
 -0.061969 -0.083481  0.092762    576.000000
 -0.061969 -0.035778  0.075896    288.000000
  0.061969  0.035778  0.025299     96.000000
  0.103282  0.011926  0.008433    288.000000
  0.144594 -0.011926 -0.008433    288.000000
 -0.144594  0.155037  0.109628    288.000000
 -0.103282  0.131185  0.092762    288.000000
 -0.061969  0.107333  0.075896    288.000000
  0.103282  0.059630 -0.008433    288.000000
  0.144594  0.035778 -0.025299    576.000000
 -0.144594  0.202741  0.092762    576.000000
 -0.103282  0.178889  0.075896    576.000000
 -0.061969  0.155037  0.059030    576.000000
  0.144594  0.083481 -0.042165    288.000000
 -0.144594  0.250444  0.075896    576.000000
 -0.103282  0.226593  0.059030    576.000000
 -0.061969  0.202741  0.042165    576.000000
 -0.144594 -0.083481  0.193957    288.000000
 -0.103282 -0.107333  0.177091    576.000000
 -0.103282 -0.059630  0.160225    288.000000
  0.103282  0.059630  0.042165     96.000000
  0.144594  0.035778  0.025299    288.000000
 -0.144594  0.202741  0.143359    288.000000
 -0.103282  0.178889  0.126494    288.000000
  0.144594  0.083481  0.008433    288.000000
 -0.144594  0.250444  0.126494    576.000000
 -0.103282  0.226593  0.109628    576.000000
 -0.144594 -0.083481  0.244554    288.000000
  0.144594  0.083481  0.059030     96.000000
 -0.144594  0.250444  0.177091    288.000000
 


--------------------------------------------------------------------------------------------------------




 Dimension of arrays:
   k-points           NKPTS =     60   k-points in BZ     NKDIM =     60   number of bands    NBANDS=      9
   number of dos      NEDOS =    301   number of ions     NIONS =      1
   non local maximal  LDIM  =      6   non local SUM 2l+1 LMDIM =     18
   total plane-waves  NPLWV =   2744
   max r-space proj   IRMAX =      1   max aug-charges    IRDMAX=   6994
   dimension x,y,z NGX =    14 NGY =   14 NGZ =   14
   dimension x,y,z NGXF=    28 NGYF=   28 NGZF=   28
   support grid    NGXF=    28 NGYF=   28 NGZF=   28
   ions per type =               1
 NGX,Y,Z   is equivalent  to a cutoff of   7.69,  7.69,  7.69 a.u.
 NGXF,Y,Z  is equivalent  to a cutoff of  15.38, 15.38, 15.38 a.u.


 I would recommend the setting:
   dimension x,y,z NGX =    14 NGY =   14 NGZ =   14
 SYSTEM =  unknown system                          
 POSCAR =  Pd                                      

 Startparameter for this run:
   NWRITE =      2    write-flag & timer
   PREC   = normal    normal or accurate (medium, high low for compatibility)
   ISTART =      0    job   : 0-new  1-cont  2-samecut
   ICHARG =      2    charge: 1-file 2-atom 10-const
   ISPIN  =      1    spin polarized calculation?
   LNONCOLLINEAR =      F non collinear calculations
   LSORBIT =      F    spin-orbit coupling
   INIWAV =      1    electr: 0-lowe 1-rand  2-diag
   LASPH  =      F    aspherical Exc in radial PAW
   METAGGA=      F    non-selfconsistent MetaGGA calc.

 Electronic Relaxation 1
   ENCUT  =  350.0 eV  25.72 Ry    5.07 a.u.   4.62  4.62  4.62*2*pi/ulx,y,z
   ENINI  =  350.0     initial cutoff
   ENAUG  =  416.2 eV  augmentation charge cutoff
   NELM   =     60;   NELMIN=  2; NELMDL= -5     # of ELM steps 
   EDIFF  = 0.1E-03   stopping-criterion for ELM
   LREAL  =      F    real-space projection
   NLSPLINE    = F    spline interpolate recip. space projectors
   LCOMPAT=      F    compatible to vasp.4.4
   GGA_COMPAT  = T    GGA compatible to vasp.4.4-vasp.4.6
   LMAXPAW     = -100 max onsite density
   LMAXMIX     =    2 max onsite mixed and CHGCAR
   VOSKOWN=      0    Vosko Wilk Nusair interpolation
   ROPT   =    0.00000
 Ionic relaxation
   EDIFFG = 0.1E-02   stopping-criterion for IOM
   NSW    =     30    number of steps for IOM
   NBLOCK =      1;   KBLOCK =     30    inner block; outer block 
   IBRION =      2    ionic relax: 0-MD 1-quasi-New 2-CG
   NFREE  =      1    steps in history (QN), initial steepest desc. (CG)
   ISIF   =      2    stress and relaxation
   IWAVPR =     11    prediction:  0-non 1-charg 2-wave 3-comb
   ISYM   =      2    0-nonsym 1-usesym 2-fastsym
   LCORR  =      T    Harris-Foulkes like correction to forces

   POTIM  = 0.5000    time-step for ionic-motion
   TEIN   =    0.0    initial temperature
   TEBEG  =    0.0;   TEEND  =   0.0 temperature during run
   SMASS  =  -3.00    Nose mass-parameter (am)
   estimated Nose-frequenzy (Omega)   =  0.10E-29 period in steps =****** mass=  -0.209E-27a.u.
   SCALEE = 1.0000    scale energy and forces
   NPACO  =    256;   APACO  = 16.0  distance and # of slots for P.C.
   PSTRESS=    0.0 pullay stress

  Mass of Ions in am
   POMASS = 106.42
  Ionic Valenz
   ZVAL   =  10.00
  Atomic Wigner-Seitz radii
   RWIGS  =  -1.00
  virtual crystal weights 
   VCA    =   1.00
   NELECT =      10.0000    total number of electrons
   NUPDOWN=      -1.0000    fix difference up-down

 DOS related values:
   EMIN   =  10.00;   EMAX   =-10.00  energy-range for DOS
   EFERMI =   0.00
   ISMEAR =     1;   SIGMA  =   0.20  broadening in eV -4-tet -1-fermi 0-gaus

 Electronic relaxation 2 (details)
   IALGO  =     38    algorithm
   LDIAG  =      T    sub-space diagonalisation (order eigenvalues)
   LSUBROT=      F    optimize rotation matrix (better conditioning)
   TURBO    =      0    0=normal 1=particle mesh
   IRESTART =      0    0=no restart 2=restart with 2 vectors
   NREBOOT  =      0    no. of reboots
   NMIN     =      0    reboot dimension
   EREF     =   0.00    reference energy to select bands
   IMIX   =      4    mixing-type and parameters
     AMIX     =   0.40;   BMIX     =  1.00
     AMIX_MAG =   1.60;   BMIX_MAG =  1.00
     AMIN     =   0.10
     WC   =   100.;   INIMIX=   1;  MIXPRE=   1;  MAXMIX= -45

 Intra band minimization:
   WEIMIN = 0.0010     energy-eigenvalue tresh-hold
   EBREAK =  0.28E-05  absolut break condition
   DEPER  =   0.30     relativ break condition  

   TIME   =   0.40     timestep for ELM

  volume/ion in A,a.u.               =      19.59       132.18
  Fermi-wavevector in a.u.,A,eV,Ry     =   1.308436  2.472586 23.293245  1.712005
  Thomas-Fermi vector in A             =   2.439103
 
 Write flags
   LWAVE  =      T    write WAVECAR
   LCHARG =      T    write CHGCAR
   LVTOT  =      F    write LOCPOT, total local potential
   LVHAR  =      F    write LOCPOT, Hartree potential only
   LELF   =      F    write electronic localiz. function (ELF)
   LORBIT =      0    0 simple, 1 ext, 2 COOP (PROOUT)


 Dipole corrections
   LMONO  =      F    monopole corrections only (constant potential shift)
   LDIPOL =      F    correct potential (dipole corrections)
   IDIPOL =      0    1-x, 2-y, 3-z, 4-all directions 
   EPSILON=  1.0000000 bulk dielectric constant

 Exchange correlation treatment:
   GGA     =    --    GGA type
   LEXCH   =     8    internal setting for exchange type
   VOSKOWN=      0    Vosko Wilk Nusair interpolation
   LHFCALC =     F    Hartree Fock is set to
   LHFONE  =     F    Hartree Fock one center treatment
   AEXX    =    0.0000 exact exchange contribution

 Linear response parameters
   LEPSILON=     F    determine dielectric tensor
   LRPA    =     F    only Hartree local field effects (RPA)
   LNABLA  =     F    use nabla operator in PAW spheres
   LVEL    =     F    velocity operator in full k-point grid
   LINTERFAST=   F  fast interpolation
   KINTER  =     0    interpolate to denser k-point grid
   CSHIFT  =0.1000    complex shift for real part using Kramers Kronig
   OMEGAMAX=  -1.0    maximum frequency
   DEG_THRESHOLD= 0.2000000E-02 threshold for treating states as degnerate
   RTIME   =    0.100 relaxation time in fs

 Orbital magnetization related:
   ORBITALMAG=     F  switch on orbital magnetization
   LCHIMAG   =     F  perturbation theory with respect to B field
   DQ        =  0.001000  dq finite difference perturbation B field



--------------------------------------------------------------------------------------------------------


 conjugate gradient relaxation of ions
 charge density and potential will be updated during run
 non-spin polarized calculation
 Variant of blocked Davidson
 Davidson routine will perform the subspace rotation
 perform sub-space diagonalisation
    after iterative eigenvector-optimisation
 modified Broyden-mixing scheme, WC =      100.0
 initial mixing is a Kerker type mixing with AMIX =  0.4000 and BMIX =      1.0000
 Hartree-type preconditioning will be used
 using additional bands            4
 reciprocal scheme for non local part
 use partial core corrections
 calculate Harris-corrections to forces 
   (improved forces if not selfconsistent)
 use gradient corrections 
 use of overlap-Matrix (Vanderbilt PP)
 Methfessel and Paxton  Order N= 1 SIGMA  =   0.20


--------------------------------------------------------------------------------------------------------


  energy-cutoff  :      350.00
  volume of cell :       19.59
      direct lattice vectors                 reciprocal lattice vectors
     3.025709917  0.000000000  0.000000000     0.330500949 -0.190814812 -0.134926448
     1.512854958  2.620341652  0.000000000     0.000000000  0.381629624 -0.134926448
     1.512854958  0.873447217  2.470481802     0.000000000  0.000000000  0.404779343

  length of vectors
     3.025709917  3.025709917  3.025709917     0.404779343  0.404779343  0.404779343


 
 k-points in units of 2pi/SCALE and weight: KPOINTS created by Atomic Simulation Env
   0.02065631  0.01192593  0.00843290       0.004
   0.06196893 -0.01192593 -0.00843290       0.012
   0.10328155 -0.03577778 -0.02529871       0.012
   0.14459417 -0.05962963 -0.04216451       0.012
  -0.14459417  0.10733333  0.07589613       0.012
  -0.10328155  0.08348148  0.05903032       0.012
  -0.06196893  0.05962963  0.04216451       0.012
  -0.02065631  0.03577778  0.02529871       0.012
   0.06196893  0.03577778 -0.02529871       0.012
   0.10328155  0.01192593 -0.04216451       0.023
   0.14459417 -0.01192593 -0.05903032       0.023
  -0.14459417  0.15503703  0.05903032       0.023
  -0.10328155  0.13118518  0.04216451       0.023
  -0.06196893  0.10733333  0.02529871       0.023
  -0.02065631  0.08348148  0.00843290       0.023
   0.10328155  0.05962963 -0.05903032       0.012
   0.14459417  0.03577778 -0.07589613       0.023
  -0.14459417  0.20274074  0.04216451       0.023
  -0.10328155  0.17888889  0.02529871       0.023
  -0.06196893  0.15503703  0.00843290       0.023
  -0.02065631  0.13118518 -0.00843290       0.023
   0.14459417  0.08348148 -0.09276193       0.012
  -0.14459417  0.25044444  0.02529871       0.023
  -0.10328155  0.22659259  0.00843290       0.023
  -0.06196893  0.20274074 -0.00843290       0.023
  -0.02065631  0.17888889 -0.02529871       0.023
  -0.14459417 -0.08348148  0.14335935       0.012
  -0.10328155 -0.10733333  0.12649354       0.023
  -0.06196893 -0.13118518  0.10962774       0.023
  -0.10328155 -0.05962963  0.10962774       0.012
  -0.06196893 -0.08348148  0.09276193       0.023
  -0.06196893 -0.03577778  0.07589613       0.012
   0.06196893  0.03577778  0.02529871       0.004
   0.10328155  0.01192593  0.00843290       0.012
   0.14459417 -0.01192593 -0.00843290       0.012
  -0.14459417  0.15503703  0.10962774       0.012
  -0.10328155  0.13118518  0.09276193       0.012
  -0.06196893  0.10733333  0.07589613       0.012
   0.10328155  0.05962963 -0.00843290       0.012
   0.14459417  0.03577778 -0.02529871       0.023
  -0.14459417  0.20274074  0.09276193       0.023
  -0.10328155  0.17888889  0.07589613       0.023
  -0.06196893  0.15503703  0.05903032       0.023
   0.14459417  0.08348148 -0.04216451       0.012
  -0.14459417  0.25044444  0.07589613       0.023
  -0.10328155  0.22659259  0.05903032       0.023
  -0.06196893  0.20274074  0.04216451       0.023
  -0.14459417 -0.08348148  0.19395677       0.012
  -0.10328155 -0.10733333  0.17709096       0.023
  -0.10328155 -0.05962963  0.16022516       0.012
   0.10328155  0.05962963  0.04216451       0.004
   0.14459417  0.03577778  0.02529871       0.012
  -0.14459417  0.20274074  0.14335935       0.012
  -0.10328155  0.17888889  0.12649354       0.012
   0.14459417  0.08348148  0.00843290       0.012
  -0.14459417  0.25044444  0.12649354       0.023
  -0.10328155  0.22659259  0.10962774       0.023
  -0.14459417 -0.08348148  0.24455419       0.012
   0.14459417  0.08348148  0.05903032       0.004
  -0.14459417  0.25044444  0.17709096       0.012
 
 k-points in reciprocal lattice and weights: KPOINTS created by Atomic Simulation Env
   0.06250000  0.06250000  0.06250000       0.004
   0.18750000  0.06250000  0.06250000       0.012
   0.31250000  0.06250000  0.06250000       0.012
   0.43750000  0.06250000  0.06250000       0.012
  -0.43750000  0.06250000  0.06250000       0.012
  -0.31250000  0.06250000  0.06250000       0.012
  -0.18750000  0.06250000  0.06250000       0.012
  -0.06250000  0.06250000  0.06250000       0.012
   0.18750000  0.18750000  0.06250000       0.012
   0.31250000  0.18750000  0.06250000       0.023
   0.43750000  0.18750000  0.06250000       0.023
  -0.43750000  0.18750000  0.06250000       0.023
  -0.31250000  0.18750000  0.06250000       0.023
  -0.18750000  0.18750000  0.06250000       0.023
  -0.06250000  0.18750000  0.06250000       0.023
   0.31250000  0.31250000  0.06250000       0.012
   0.43750000  0.31250000  0.06250000       0.023
  -0.43750000  0.31250000  0.06250000       0.023
  -0.31250000  0.31250000  0.06250000       0.023
  -0.18750000  0.31250000  0.06250000       0.023
  -0.06250000  0.31250000  0.06250000       0.023
   0.43750000  0.43750000  0.06250000       0.012
  -0.43750000  0.43750000  0.06250000       0.023
  -0.31250000  0.43750000  0.06250000       0.023
  -0.18750000  0.43750000  0.06250000       0.023
  -0.06250000  0.43750000  0.06250000       0.023
  -0.43750000 -0.43750000  0.06250000       0.012
  -0.31250000 -0.43750000  0.06250000       0.023
  -0.18750000 -0.43750000  0.06250000       0.023
  -0.31250000 -0.31250000  0.06250000       0.012
  -0.18750000 -0.31250000  0.06250000       0.023
  -0.18750000 -0.18750000  0.06250000       0.012
   0.18750000  0.18750000  0.18750000       0.004
   0.31250000  0.18750000  0.18750000       0.012
   0.43750000  0.18750000  0.18750000       0.012
  -0.43750000  0.18750000  0.18750000       0.012
  -0.31250000  0.18750000  0.18750000       0.012
  -0.18750000  0.18750000  0.18750000       0.012
   0.31250000  0.31250000  0.18750000       0.012
   0.43750000  0.31250000  0.18750000       0.023
  -0.43750000  0.31250000  0.18750000       0.023
  -0.31250000  0.31250000  0.18750000       0.023
  -0.18750000  0.31250000  0.18750000       0.023
   0.43750000  0.43750000  0.18750000       0.012
  -0.43750000  0.43750000  0.18750000       0.023
  -0.31250000  0.43750000  0.18750000       0.023
  -0.18750000  0.43750000  0.18750000       0.023
  -0.43750000 -0.43750000  0.18750000       0.012
  -0.31250000 -0.43750000  0.18750000       0.023
  -0.31250000 -0.31250000  0.18750000       0.012
   0.31250000  0.31250000  0.31250000       0.004
   0.43750000  0.31250000  0.31250000       0.012
  -0.43750000  0.31250000  0.31250000       0.012
  -0.31250000  0.31250000  0.31250000       0.012
   0.43750000  0.43750000  0.31250000       0.012
  -0.43750000  0.43750000  0.31250000       0.023
  -0.31250000  0.43750000  0.31250000       0.023
  -0.43750000 -0.43750000  0.31250000       0.012
   0.43750000  0.43750000  0.43750000       0.004
  -0.43750000  0.43750000  0.43750000       0.012
 
 position of ions in fractional coordinates (direct lattice) 
   0.00000000  0.00000000  0.00000000
 
 position of ions in cartesian coordinates  (Angst):
   0.00000000  0.00000000  0.00000000
 


--------------------------------------------------------------------------------------------------------


 k-point  1 :   0.0625 0.0625 0.0625  plane waves:     292
 k-point  2 :   0.1875 0.0625 0.0625  plane waves:     298
 k-point  3 :   0.3125 0.0625 0.0625  plane waves:     295
 k-point  4 :   0.4375 0.0625 0.0625  plane waves:     291
 k-point  5 :  -0.4375 0.0625 0.0625  plane waves:     287
 k-point  6 :  -0.3125 0.0625 0.0625  plane waves:     292
 k-point  7 :  -0.1875 0.0625 0.0625  plane waves:     297
 k-point  8 :  -0.0625 0.0625 0.0625  plane waves:     299
 k-point  9 :   0.1875 0.1875 0.0625  plane waves:     299
 k-point 10 :   0.3125 0.1875 0.0625  plane waves:     296
 k-point 11 :   0.4375 0.1875 0.0625  plane waves:     290
 k-point 12 :  -0.4375 0.1875 0.0625  plane waves:     290
 k-point 13 :  -0.3125 0.1875 0.0625  plane waves:     290
 k-point 14 :  -0.1875 0.1875 0.0625  plane waves:     296
 k-point 15 :  -0.0625 0.1875 0.0625  plane waves:     293
 k-point 16 :   0.3125 0.3125 0.0625  plane waves:     298
 k-point 17 :   0.4375 0.3125 0.0625  plane waves:     296
 k-point 18 :  -0.4375 0.3125 0.0625  plane waves:     291
 k-point 19 :  -0.3125 0.3125 0.0625  plane waves:     285
 k-point 20 :  -0.1875 0.3125 0.0625  plane waves:     289
 k-point 21 :  -0.0625 0.3125 0.0625  plane waves:     295
 k-point 22 :   0.4375 0.4375 0.0625  plane waves:     293
 k-point 23 :  -0.4375 0.4375 0.0625  plane waves:     289
 k-point 24 :  -0.3125 0.4375 0.0625  plane waves:     288
 k-point 25 :  -0.1875 0.4375 0.0625  plane waves:     287
 k-point 26 :  -0.0625 0.4375 0.0625  plane waves:     288
 k-point 27 :  -0.4375-0.4375 0.0625  plane waves:     298
 k-point 28 :  -0.3125-0.4375 0.0625  plane waves:     293
 k-point 29 :  -0.1875-0.4375 0.0625  plane waves:     291
 k-point 30 :  -0.3125-0.3125 0.0625  plane waves:     299
 k-point 31 :  -0.1875-0.3125 0.0625  plane waves:     297
 k-point 32 :  -0.1875-0.1875 0.0625  plane waves:     297
 k-point 33 :   0.1875 0.1875 0.1875  plane waves:     295
 k-point 34 :   0.3125 0.1875 0.1875  plane waves:     297
 k-point 35 :   0.4375 0.1875 0.1875  plane waves:     294
 k-point 36 :  -0.4375 0.1875 0.1875  plane waves:     293
 k-point 37 :  -0.3125 0.1875 0.1875  plane waves:     291
 k-point 38 :  -0.1875 0.1875 0.1875  plane waves:     291
 k-point 39 :   0.3125 0.3125 0.1875  plane waves:     294
 k-point 40 :   0.4375 0.3125 0.1875  plane waves:     290
 k-point 41 :  -0.4375 0.3125 0.1875  plane waves:     287
 k-point 42 :  -0.3125 0.3125 0.1875  plane waves:     288
 k-point 43 :  -0.1875 0.3125 0.1875  plane waves:     292
 k-point 44 :   0.4375 0.4375 0.1875  plane waves:     292
 k-point 45 :  -0.4375 0.4375 0.1875  plane waves:     292
 k-point 46 :  -0.3125 0.4375 0.1875  plane waves:     288
 k-point 47 :  -0.1875 0.4375 0.1875  plane waves:     288
 k-point 48 :  -0.4375-0.4375 0.1875  plane waves:     288
 k-point 49 :  -0.3125-0.4375 0.1875  plane waves:     288
 k-point 50 :  -0.3125-0.3125 0.1875  plane waves:     294
 k-point 51 :   0.3125 0.3125 0.3125  plane waves:     290
 k-point 52 :   0.4375 0.3125 0.3125  plane waves:     290
 k-point 53 :  -0.4375 0.3125 0.3125  plane waves:     287
 k-point 54 :  -0.3125 0.3125 0.3125  plane waves:     284
 k-point 55 :   0.4375 0.4375 0.3125  plane waves:     291
 k-point 56 :  -0.4375 0.4375 0.3125  plane waves:     292
 k-point 57 :  -0.3125 0.4375 0.3125  plane waves:     287
 k-point 58 :  -0.4375-0.4375 0.3125  plane waves:     290
 k-point 59 :   0.4375 0.4375 0.4375  plane waves:     284
 k-point 60 :  -0.4375 0.4375 0.4375  plane waves:     290

 maximum number of plane-waves:       299
 maximum index in each direction: 
   IXMAX=    5   IYMAX=    5   IZMAX=    4
   IXMIN=   -5   IYMIN=   -5   IZMIN=   -5

 WARNING: aliasing errors must be expected set NGX to  22 to avoid them
 WARNING: aliasing errors must be expected set NGY to  22 to avoid them
 WARNING: aliasing errors must be expected set NGZ to  20 to avoid them
 aliasing errors are usually negligible using standard VASP settings
 and one can safely disregard these warnings

 total amount of memory used by VASP on root node    36557. kBytes
========================================================================

   base      :      30000. kBytes
   nonl-proj :       2588. kBytes
   grid      :       1216. kBytes
   one-center:         15. kBytes
   wavefun   :       2738. kBytes
 
     INWAV:  cpu time    0.00: real time    0.00
 Broyden mixing: mesh for mixing (old mesh)
   NGX =  9   NGY =  9   NGZ =  9
  (NGX  = 28   NGY  = 28   NGZ  = 28)
  gives a total of    729 points

 initial charge density was supplied:
 charge density of overlapping atoms calculated
 number of electron      10.0000000 magnetization 
 keeping initial charge density in first step


--------------------------------------------------------------------------------------------------------


 Maximum index for augmentation-charges         6603 (set IRDMAX)


--------------------------------------------------------------------------------------------------------


 First call to EWALD:  gamma=   0.658
 Maximum number of real-space cells 3x 3x 3
 Maximum number of reciprocal cells 3x 3x 3

    FEWALD:  cpu time    0.00: real time    0.00


----------------------------------------- Iteration    1(   1)  ---------------------------------------


    POTLOK:  cpu time    0.03: real time    0.03
    SETDIJ:  cpu time    0.01: real time    0.01
     EDDAV:  cpu time    0.85: real time    0.85
       DOS:  cpu time    0.00: real time    0.00
    --------------------------------------------
      LOOP:  cpu time    0.89: real time    0.90

 eigenvalue-minimisations  :  1120
 total energy-change (2. order) : 0.2684037E+02  (-0.3978040E+03)
 number of electron      10.0000000 magnetization 
 augmentation part       10.0000000 magnetization 

 Free energy of the ion-electron system (eV)
  ---------------------------------------------------
  alpha Z        PSCENC =        33.27481664
  Ewald energy   TEWEN  =      -771.45405524
  -Hartree energ DENC   =      -155.59823930
  -exchange      EXHF   =         0.00000000
  -V(xc)+E(xc)   XCENC  =       -29.94315968
  PAW double counting   =       806.73831454     -744.51602449
  entropy T*S    EENTRO =        -0.00102148
  eigenvalues    EBANDS =        78.61360564
  atomic energy  EATOM  =       809.72612850
  ---------------------------------------------------
  free energy    TOTEN  =        26.84036514 eV

  energy without entropy =       26.84138662  energy(sigma->0) =       26.84070563


--------------------------------------------------------------------------------------------------------




----------------------------------------- Iteration    1(   2)  ---------------------------------------


     EDDAV:  cpu time    0.79: real time    0.79
       DOS:  cpu time    0.00: real time    0.01
    --------------------------------------------
      LOOP:  cpu time    0.80: real time    0.86

 eigenvalue-minimisations  :  1144
 total energy-change (2. order) :-0.3151731E+02  (-0.3005306E+02)
 number of electron      10.0000000 magnetization 
 augmentation part       10.0000000 magnetization 

 Free energy of the ion-electron system (eV)
  ---------------------------------------------------
  alpha Z        PSCENC =        33.27481664
  Ewald energy   TEWEN  =      -771.45405524
  -Hartree energ DENC   =      -155.59823930
  -exchange      EXHF   =         0.00000000
  -V(xc)+E(xc)   XCENC  =       -29.94315968
  PAW double counting   =       806.73831454     -744.51602449
  entropy T*S    EENTRO =        -0.00796621
  eigenvalues    EBANDS =        47.10323614
  atomic energy  EATOM  =       809.72612850
  ---------------------------------------------------
  free energy    TOTEN  =        -4.67694909 eV

  energy without entropy =       -4.66898288  energy(sigma->0) =       -4.67429369


--------------------------------------------------------------------------------------------------------




----------------------------------------- Iteration    1(   3)  ---------------------------------------


     EDDAV:  cpu time    0.87: real time    0.87
       DOS:  cpu time    0.00: real time    0.01
    --------------------------------------------
      LOOP:  cpu time    0.88: real time    0.89

 eigenvalue-minimisations  :  1302
 total energy-change (2. order) :-0.3476227E+00  (-0.3420769E+00)
 number of electron      10.0000000 magnetization 
 augmentation part       10.0000000 magnetization 

 Free energy of the ion-electron system (eV)
  ---------------------------------------------------
  alpha Z        PSCENC =        33.27481664
  Ewald energy   TEWEN  =      -771.45405524
  -Hartree energ DENC   =      -155.59823930
  -exchange      EXHF   =         0.00000000
  -V(xc)+E(xc)   XCENC  =       -29.94315968
  PAW double counting   =       806.73831454     -744.51602449
  entropy T*S    EENTRO =        -0.01026771
  eigenvalues    EBANDS =        46.75791489
  atomic energy  EATOM  =       809.72612850
  ---------------------------------------------------
  free energy    TOTEN  =        -5.02457184 eV

  energy without entropy =       -5.01430413  energy(sigma->0) =       -5.02114927


--------------------------------------------------------------------------------------------------------




----------------------------------------- Iteration    1(   4)  ---------------------------------------


     EDDAV:  cpu time    0.81: real time    0.81
       DOS:  cpu time    0.00: real time    0.01
    --------------------------------------------
      LOOP:  cpu time    0.82: real time    0.83

 eigenvalue-minimisations  :  1218
 total energy-change (2. order) :-0.1528373E-02  (-0.1528132E-02)
 number of electron      10.0000000 magnetization 
 augmentation part       10.0000000 magnetization 

 Free energy of the ion-electron system (eV)
  ---------------------------------------------------
  alpha Z        PSCENC =        33.27481664
  Ewald energy   TEWEN  =      -771.45405524
  -Hartree energ DENC   =      -155.59823930
  -exchange      EXHF   =         0.00000000
  -V(xc)+E(xc)   XCENC  =       -29.94315968
  PAW double counting   =       806.73831454     -744.51602449
  entropy T*S    EENTRO =        -0.01025633
  eigenvalues    EBANDS =        46.75637514
  atomic energy  EATOM  =       809.72612850
  ---------------------------------------------------
  free energy    TOTEN  =        -5.02610021 eV

  energy without entropy =       -5.01584388  energy(sigma->0) =       -5.02268143


--------------------------------------------------------------------------------------------------------




----------------------------------------- Iteration    1(   5)  ---------------------------------------


     EDDAV:  cpu time    0.80: real time    0.80
       DOS:  cpu time    0.01: real time    0.01
    CHARGE:  cpu time    0.06: real time    0.06
    MIXING:  cpu time    0.00: real time    0.00
    --------------------------------------------
      LOOP:  cpu time    0.87: real time    0.88

 eigenvalue-minimisations  :  1283
 total energy-change (2. order) :-0.2154681E-04  (-0.2154626E-04)
 number of electron       9.9999953 magnetization 
 augmentation part        4.0644391 magnetization 

 Broyden mixing:
  rms(total) = 0.35686E+00    rms(broyden)= 0.35674E+00
  rms(prec ) = 0.10752E+01
  weight for this iteration     100.00

 Free energy of the ion-electron system (eV)
  ---------------------------------------------------
  alpha Z        PSCENC =        33.27481664
  Ewald energy   TEWEN  =      -771.45405524
  -Hartree energ DENC   =      -155.59823930
  -exchange      EXHF   =         0.00000000
  -V(xc)+E(xc)   XCENC  =       -29.94315968
  PAW double counting   =       806.73831454     -744.51602449
  entropy T*S    EENTRO =        -0.01025639
  eigenvalues    EBANDS =        46.75635365
  atomic energy  EATOM  =       809.72612850
  ---------------------------------------------------
  free energy    TOTEN  =        -5.02612176 eV

  energy without entropy =       -5.01586537  energy(sigma->0) =       -5.02270296


--------------------------------------------------------------------------------------------------------




----------------------------------------- Iteration    1(   6)  ---------------------------------------


    POTLOK:  cpu time    0.03: real time    0.03
    SETDIJ:  cpu time    0.01: real time    0.01
     EDDAV:  cpu time    0.72: real time    0.72
       DOS:  cpu time    0.01: real time    0.01
    CHARGE:  cpu time    0.06: real time    0.06
    MIXING:  cpu time    0.00: real time    0.00
    --------------------------------------------
      LOOP:  cpu time    0.82: real time    0.84

 eigenvalue-minimisations  :  1109
 total energy-change (2. order) : 0.1675750E+00  (-0.1225922E+00)
 number of electron       9.9999950 magnetization 
 augmentation part        4.2617566 magnetization 

 Broyden mixing:
  rms(total) = 0.18111E+00    rms(broyden)= 0.18110E+00
  rms(prec ) = 0.20598E+00
  weight for this iteration     100.00

 eigenvalues of (default mixing * dielectric matrix)
  average eigenvalue GAMMA=   0.9626
  0.9626

 Free energy of the ion-electron system (eV)
  ---------------------------------------------------
  alpha Z        PSCENC =        33.27481664
  Ewald energy   TEWEN  =      -771.45405524
  -Hartree energ DENC   =      -148.08879729
  -exchange      EXHF   =         0.00000000
  -V(xc)+E(xc)   XCENC  =       -30.17693768
  PAW double counting   =       823.37076862     -761.86853987
  entropy T*S    EENTRO =        -0.00775951
  eigenvalues    EBANDS =        40.36582910
  atomic energy  EATOM  =       809.72612850
  ---------------------------------------------------
  free energy    TOTEN  =        -4.85854673 eV

  energy without entropy =       -4.85078722  energy(sigma->0) =       -4.85596023


--------------------------------------------------------------------------------------------------------




----------------------------------------- Iteration    1(   7)  ---------------------------------------


    POTLOK:  cpu time    0.03: real time    0.03
    SETDIJ:  cpu time    0.01: real time    0.02
     EDDAV:  cpu time    0.70: real time    0.70
       DOS:  cpu time    0.00: real time    0.01
    CHARGE:  cpu time    0.06: real time    0.06
    MIXING:  cpu time    0.00: real time    0.00
    --------------------------------------------
      LOOP:  cpu time    0.80: real time    0.83

 eigenvalue-minimisations  :  1107
 total energy-change (2. order) : 0.2502803E-02  (-0.1201270E-02)
 number of electron       9.9999950 magnetization 
 augmentation part        4.2439258 magnetization 

 Broyden mixing:
  rms(total) = 0.10190E+00    rms(broyden)= 0.10190E+00
  rms(prec ) = 0.11653E+00
  weight for this iteration     100.00

 eigenvalues of (default mixing * dielectric matrix)
  average eigenvalue GAMMA=   1.6429
  0.9084  2.3773

 Free energy of the ion-electron system (eV)
  ---------------------------------------------------
  alpha Z        PSCENC =        33.27481664
  Ewald energy   TEWEN  =      -771.45405524
  -Hartree energ DENC   =      -148.47568018
  -exchange      EXHF   =         0.00000000
  -V(xc)+E(xc)   XCENC  =       -30.16919075
  PAW double counting   =       839.33604419     -777.94831381
  entropy T*S    EENTRO =        -0.00803504
  eigenvalues    EBANDS =        40.86224175
  atomic energy  EATOM  =       809.72612850
  ---------------------------------------------------
  free energy    TOTEN  =        -4.85604393 eV

  energy without entropy =       -4.84800889  energy(sigma->0) =       -4.85336559


--------------------------------------------------------------------------------------------------------




----------------------------------------- Iteration    1(   8)  ---------------------------------------


    POTLOK:  cpu time    0.03: real time    0.03
    SETDIJ:  cpu time    0.01: real time    0.04
     EDDAV:  cpu time    0.76: real time    0.76
       DOS:  cpu time    0.00: real time    0.01
    CHARGE:  cpu time    0.06: real time    0.06
    MIXING:  cpu time    0.00: real time    0.00
    --------------------------------------------
      LOOP:  cpu time    0.86: real time    0.99

 eigenvalue-minimisations  :  1152
 total energy-change (2. order) : 0.5703505E-03  (-0.6130452E-04)
 number of electron       9.9999950 magnetization 
 augmentation part        4.2460512 magnetization 

 Broyden mixing:
  rms(total) = 0.36867E-02    rms(broyden)= 0.36864E-02
  rms(prec ) = 0.62574E-02
  weight for this iteration     100.00

 eigenvalues of (default mixing * dielectric matrix)
  average eigenvalue GAMMA=   1.6346
  2.6037  0.9072  1.3931

 Free energy of the ion-electron system (eV)
  ---------------------------------------------------
  alpha Z        PSCENC =        33.27481664
  Ewald energy   TEWEN  =      -771.45405524
  -Hartree energ DENC   =      -148.02724515
  -exchange      EXHF   =         0.00000000
  -V(xc)+E(xc)   XCENC  =       -30.18780869
  PAW double counting   =       863.61198888     -802.46066927
  entropy T*S    EENTRO =        -0.00793621
  eigenvalues    EBANDS =        40.66930696
  atomic energy  EATOM  =       809.72612850
  ---------------------------------------------------
  free energy    TOTEN  =        -4.85547358 eV

  energy without entropy =       -4.84753737  energy(sigma->0) =       -4.85282818


--------------------------------------------------------------------------------------------------------




----------------------------------------- Iteration    1(   9)  ---------------------------------------


    POTLOK:  cpu time    0.03: real time    0.03
    SETDIJ:  cpu time    0.01: real time    0.01
     EDDAV:  cpu time    0.49: real time    0.49
       DOS:  cpu time    0.01: real time    0.01
    --------------------------------------------
      LOOP:  cpu time    0.53: real time    0.55

 eigenvalue-minimisations  :   590
 total energy-change (2. order) :-0.1674736E-04  (-0.9605283E-06)
 number of electron       9.9999950 magnetization 
 augmentation part        4.2460512 magnetization 

 Free energy of the ion-electron system (eV)
  ---------------------------------------------------
  alpha Z        PSCENC =        33.27481664
  Ewald energy   TEWEN  =      -771.45405524
  -Hartree energ DENC   =      -148.00457263
  -exchange      EXHF   =         0.00000000
  -V(xc)+E(xc)   XCENC  =       -30.18906472
  PAW double counting   =       865.36156957     -804.21407471
  entropy T*S    EENTRO =        -0.00792843
  eigenvalues    EBANDS =        40.65169069
  atomic energy  EATOM  =       809.72612850
  ---------------------------------------------------
  free energy    TOTEN  =        -4.85549033 eV

  energy without entropy =       -4.84756190  energy(sigma->0) =       -4.85284752


--------------------------------------------------------------------------------------------------------




 average (electrostatic) potential at core
  the test charge radii are     1.1199
  (the norm of the test charge is              1.0000)
       1 -73.8693
 
 
 
 E-fermi :   5.7174     XC(G=0): -11.4855     alpha+bet :-12.5720


 k-point     1 :       0.0625    0.0625    0.0625
  band No.  band energies     occupation 
      1       0.6360      2.00000
      2       3.8907      2.00000
      3       3.9520      2.00000
      4       3.9520      2.00000
      5       4.9170      2.00000
      6       4.9170      2.00000
      7      22.4285      0.00000
      8      24.6675      0.00000
      9      25.6460      0.00000

 k-point     2 :       0.1875    0.0625    0.0625
  band No.  band energies     occupation 
      1       1.2003      2.00000
      2       3.7496      2.00000
      3       4.0897      2.00000
      4       4.1071      2.00000
      5       4.7872      2.00000
      6       4.9945      2.00000
      7      21.5388      0.00000
      8      22.8188      0.00000
      9      24.9366      0.00000

 k-point     3 :       0.3125    0.0625    0.0625
  band No.  band energies     occupation 
      1       2.1599      2.00000
      2       3.9167      2.00000
      3       4.1378      2.00000
      4       4.1467      2.00000
      5       4.9438      2.00000
      6       5.3593      2.02963
      7      17.2528      0.00000
      8      22.3385      0.00000
      9      24.3886      0.00000

 k-point     4 :       0.4375    0.0625    0.0625
  band No.  band energies     occupation 
      1       2.3620      2.00000
      2       3.9290      2.00000
      3       4.0019      2.00000
      4       5.1384      2.00033
      5       5.4232      2.05785
      6       6.4289     -0.00001
      7      13.1054      0.00000
      8      21.7688      0.00000
      9      23.3204      0.00000

 k-point     5 :      -0.4375    0.0625    0.0625
  band No.  band energies     occupation 
      1       2.3321      2.00000
      2       3.8615      2.00000
      3       3.9617      2.00000
      4       5.3665      2.03248
      5       5.6813      1.29953
      6       7.5973      0.00000
      7      11.2288      0.00000
      8      21.6478      0.00000
      9      23.3882      0.00000

 k-point     6 :      -0.3125    0.0625    0.0625
  band No.  band energies     occupation 
      1       2.3596      2.00000
      2       3.9639      2.00000
      3       4.0679      2.00000
      4       4.6849      2.00000
      5       5.4999      2.06394
      6       5.7824      0.48015
      7      14.3993      0.00000
      8      22.1791      0.00000
      9      23.5778      0.00000

 k-point     7 :      -0.1875    0.0625    0.0625
  band No.  band energies     occupation 
      1       1.8775      2.00000
      2       3.7401      2.00000
      3       4.1447      2.00000
      4       4.1740      2.00000
      5       4.9067      2.00000
      6       5.1236      2.00022
      7      18.7272      0.00000
      8      22.9555      0.00000
      9      24.2668      0.00000

 k-point     8 :      -0.0625    0.0625    0.0625
  band No.  band energies     occupation 
      1       0.9266      2.00000
      2       3.7831      2.00000
      3       4.0497      2.00000
      4       4.0527      2.00000
      5       4.8036      2.00000
      6       4.9759      2.00000
      7      22.3793      0.00000
      8      23.6158      0.00000
      9      24.9057      0.00000

 k-point     9 :       0.1875    0.1875    0.0625
  band No.  band energies     occupation 
      1       1.4710      2.00000
      2       3.5734      2.00000
      3       4.2341      2.00000
      4       4.2495      2.00000
      5       4.6562      2.00000
      6       5.0861      2.00008
      7      21.8154      0.00000
      8      23.0568      0.00000
      9      23.5547      0.00000

 k-point    10 :       0.3125    0.1875    0.0625
  band No.  band energies     occupation 
      1       2.3295      2.00000
      2       3.3871      2.00000
      3       4.1195      2.00000
      4       4.4929      2.00000
      5       4.9087      2.00000
      6       5.4390      2.06414
      7      19.1184      0.00000
      8      20.9571      0.00000
      9      23.4896      0.00000

 k-point    11 :       0.4375    0.1875    0.0625
  band No.  band energies     occupation 
      1       2.7078      2.00000
      2       3.7571      2.00000
      3       3.9662      2.00000
      4       4.4113      2.00000
      5       5.4920      2.06757
      6       6.7491      0.00000
      7      14.7660      0.00000
      8      20.5206      0.00000
      9      21.6086      0.00000

 k-point    12 :      -0.4375    0.1875    0.0625
  band No.  band energies     occupation 
      1       2.6782      2.00000
      2       3.6363      2.00000
      3       4.2655      2.00000
      4       4.5573      2.00000
      5       5.6419      1.59107
      6       8.9635      0.00000
      7      11.3683      0.00000
      8      20.1235      0.00000
      9      20.9185      0.00000

 k-point    13 :      -0.3125    0.1875    0.0625
  band No.  band energies     occupation 
      1       2.7485      2.00000
      2       3.7240      2.00000
      3       4.2158      2.00000
      4       4.3950      2.00000
      5       5.3601      2.02994
      6       7.5600      0.00000
      7      13.4920      0.00000
      8      19.4462      0.00000
      9      22.0775      0.00000

 k-point    14 :      -0.1875    0.1875    0.0625
  band No.  band energies     occupation 
      1       2.6313      2.00000
      2       3.5173      2.00000
      3       4.0036      2.00000
      4       4.4687      2.00000
      5       4.8000      2.00000
      6       5.9447     -0.06824
      7      17.6656      0.00000
      8      19.6305      0.00000
      9      23.7904      0.00000

 k-point    15 :      -0.0625    0.1875    0.0625
  band No.  band energies     occupation 
      1       1.7085      2.00000
      2       3.6029      2.00000
      3       4.1770      2.00000
      4       4.2495      2.00000
      5       4.7185      2.00000
      6       5.1614      2.00061
      7      20.3369      0.00000
      8      22.0071      0.00000
      9      24.5852      0.00000

 k-point    16 :       0.3125    0.3125    0.0625
  band No.  band energies     occupation 
      1       2.5900      2.00000
      2       3.0385      2.00000
      3       4.5627      2.00000
      4       4.8620      2.00000
      5       5.3200      2.01668
      6       5.3991      2.04693
      7      19.4373      0.00000
      8      20.4107      0.00000
      9      21.1059      0.00000

 k-point    17 :       0.4375    0.3125    0.0625
  band No.  band energies     occupation 
      1       2.7493      2.00000
      2       2.9409      2.00000
      3       4.4988      2.00000
      4       5.1320      2.00028
      5       5.5359      2.02520
      6       7.0063      0.00000
      7      16.8663      0.00000
      8      18.5540      0.00000
      9      18.8505      0.00000

 k-point    18 :      -0.4375    0.3125    0.0625
  band No.  band energies     occupation 
      1       2.8284      2.00000
      2       3.2392      2.00000
      3       4.2516      2.00000
      4       4.9068      2.00000
      5       5.6890      1.23707
      6       9.7365      0.00000
      7      13.0347      0.00000
      8      16.8220      0.00000
      9      18.9953      0.00000

 k-point    19 :      -0.3125    0.3125    0.0625
  band No.  band energies     occupation 
      1       3.1141      2.00000
      2       3.5186      2.00000
      3       3.8900      2.00000
      4       4.7482      2.00000
      5       5.3817      2.03899
      6       9.8669      0.00000
      7      13.2719      0.00000
      8      15.5920      0.00000
      9      20.3723      0.00000

 k-point    20 :      -0.1875    0.3125    0.0625
  band No.  band energies     occupation 
      1       3.1320      2.00000
      2       3.6107      2.00000
      3       3.7782      2.00000
      4       4.6025      2.00000
      5       5.0584      2.00003
      6       7.5458      0.00000
      7      15.2874      0.00000
      8      17.3192      0.00000
      9      22.1067      0.00000

 k-point    21 :      -0.0625    0.3125    0.0625
  band No.  band energies     occupation 
      1       2.4656      2.00000
      2       3.9389      2.00000
      3       4.0490      2.00000
      4       4.2312      2.00000
      5       5.1749      2.00085
      6       5.8463      0.12199
      7      15.9321      0.00000
      8      21.4679      0.00000
      9      23.3765      0.00000

 k-point    22 :       0.4375    0.4375    0.0625
  band No.  band energies     occupation 
      1       2.4568      2.00000
      2       2.6191      2.00000
      3       5.4629      2.07027
      4       5.4715      2.07091
      5       5.7179      0.99555
      6       7.7555      0.00000
      7      16.0302      0.00000
      8      17.4135      0.00000
      9      18.0994      0.00000

 k-point    23 :      -0.4375    0.4375    0.0625
  band No.  band energies     occupation 
      1       2.5041      2.00000
      2       2.6738      2.00000
      3       5.1615      2.00061
      4       5.4591      2.06968
      5       5.8203      0.24369
      6       9.8281      0.00000
      7      14.2079      0.00000
      8      15.8239      0.00000
      9      17.3769      0.00000

 k-point    24 :      -0.3125    0.4375    0.0625
  band No.  band energies     occupation 
      1       2.7888      2.00000
      2       3.1386      2.00000
      3       4.3985      2.00000
      4       5.0743      2.00005
      5       5.6595      1.46746
      6      11.4075      0.00000
      7      12.6242      0.00000
      8      14.7581      0.00000
      9      18.6529      0.00000

 k-point    25 :      -0.1875    0.4375    0.0625
  band No.  band energies     occupation 
      1       2.9337      2.00000
      2       3.4990      2.00000
      3       4.2090      2.00000
      4       4.5169      2.00000
      5       5.5401      2.01794
      6       9.8746      0.00000
      7      11.6399      0.00000
      8      17.8297      0.00000
      9      20.5476      0.00000

 k-point    26 :      -0.0625    0.4375    0.0625
  band No.  band energies     occupation 
      1       2.4736      2.00000
      2       3.8032      2.00000
      3       4.0819      2.00000
      4       4.9002      2.00000
      5       5.6015      1.82107
      6       7.5811      0.00000
      7      12.0669      0.00000
      8      21.2730      0.00000
      9      22.2779      0.00000

 k-point    27 :      -0.4375   -0.4375    0.0625
  band No.  band energies     occupation 
      1       2.3540      2.00000
      2       2.5246      2.00000
      3       5.6012      1.82251
      4       5.6855      1.26586
      5       5.8325      0.18219
      6       9.0922      0.00000
      7      14.2086      0.00000
      8      16.9014      0.00000
      9      17.5736      0.00000

 k-point    28 :      -0.3125   -0.4375    0.0625
  band No.  band energies     occupation 
      1       2.6066      2.00000
      2       2.7656      2.00000
      3       4.8892      2.00000
      4       5.3873      2.04150
      5       5.7025      1.12550
      6       8.4378      0.00000
      7      15.7731      0.00000
      8      16.5787      0.00000
      9      17.8404      0.00000

 k-point    29 :      -0.1875   -0.4375    0.0625
  band No.  band energies     occupation 
      1       2.8265      2.00000
      2       3.4583      2.00000
      3       4.0701      2.00000
      4       4.6570      2.00000
      5       5.6549      1.50080
      6       8.0943      0.00000
      7      13.7789      0.00000
      8      19.2257      0.00000
      9      19.6507      0.00000

 k-point    30 :      -0.3125   -0.3125    0.0625
  band No.  band energies     occupation 
      1       2.5997      2.00000
      2       2.7979      2.00000
      3       5.0584      2.00003
      4       5.2021      2.00163
      5       5.5640      1.96216
      6       6.3259     -0.00015
      7      18.1802      0.00000
      8      18.6287      0.00000
      9      19.0811      0.00000

 k-point    31 :      -0.1875   -0.3125    0.0625
  band No.  band energies     occupation 
      1       2.7505      2.00000
      2       3.1584      2.00000
      3       4.1541      2.00000
      4       4.7999      2.00000
      5       5.2768      2.00787
      6       5.9689     -0.07060
      7      17.9457      0.00000
      8      19.7635      0.00000
      9      21.2529      0.00000

 k-point    32 :      -0.1875   -0.1875    0.0625
  band No.  band energies     occupation 
      1       2.1417      2.00000
      2       3.3101      2.00000
      3       4.3294      2.00000
      4       4.5283      2.00000
      5       4.7852      2.00000
      6       5.2338      2.00332
      7      20.6924      0.00000
      8      21.9598      0.00000
      9      22.8254      0.00000

 k-point    33 :       0.1875    0.1875    0.1875
  band No.  band energies     occupation 
      1       1.4423      2.00000
      2       3.7847      2.00000
      3       4.1066      2.00000
      4       4.1066      2.00000
      5       4.9159      2.00000
      6       4.9159      2.00000
      7      20.1102      0.00000
      8      23.1807      0.00000
      9      25.8119      0.00000

 k-point    34 :       0.3125    0.1875    0.1875
  band No.  band energies     occupation 
      1       2.1347      2.00000
      2       3.5972      2.00000
      3       4.1438      2.00000
      4       4.3120      2.00000
      5       4.6644      2.00000
      6       5.4613      2.07004
      7      18.9370      0.00000
      8      20.8043      0.00000
      9      25.0368      0.00000

 k-point    35 :       0.4375    0.1875    0.1875
  band No.  band energies     occupation 
      1       2.9197      2.00000
      2       3.6145      2.00000
      3       3.9744      2.00000
      4       4.4366      2.00000
      5       4.8184      2.00000
      6       6.6231      0.00000
      7      16.3892      0.00000
      8      18.3973      0.00000
      9      23.7902      0.00000

 k-point    36 :      -0.4375    0.1875    0.1875
  band No.  band energies     occupation 
      1       2.8205      2.00000
      2       3.6397      2.00000
      3       4.3348      2.00000
      4       4.3897      2.00000
      5       5.3974      2.04617
      6       8.5990      0.00000
      7      12.4374      0.00000
      8      18.5230      0.00000
      9      22.8105      0.00000

 k-point    37 :      -0.3125    0.1875    0.1875
  band No.  band energies     occupation 
      1       2.7237      2.00000
      2       3.6043      2.00000
      3       4.3061      2.00000
      4       4.3897      2.00000
      5       5.7095      1.06621
      6       8.5209      0.00000
      7      12.3235      0.00000
      8      19.5772      0.00000
      9      21.3183      0.00000

 k-point    38 :      -0.1875    0.1875    0.1875
  band No.  band energies     occupation 
      1       2.7065      2.00000
      2       3.4363      2.00000
      3       4.0505      2.00000
      4       4.5291      2.00000
      5       5.5642      1.96163
      6       6.1556     -0.00821
      7      16.2620      0.00000
      8      21.1149      0.00000
      9      21.3080      0.00000

 k-point    39 :       0.3125    0.3125    0.1875
  band No.  band energies     occupation 
      1       2.3778      2.00000
      2       3.6197      2.00000
      3       4.0570      2.00000
      4       4.3151      2.00000
      5       5.2992      2.01180
      6       5.3557      2.02824
      7      17.4414      0.00000
      8      22.5908      0.00000
      9      22.6145      0.00000

 k-point    40 :       0.4375    0.3125    0.1875
  band No.  band energies     occupation 
      1       2.9792      2.00000
      2       3.4120      2.00000
      3       3.8164      2.00000
      4       4.7338      2.00000
      5       5.1244      2.00023
      6       6.7015      0.00000
      7      16.5276      0.00000
      8      18.5206      0.00000
      9      21.5647      0.00000

 k-point    41 :      -0.4375    0.3125    0.1875
  band No.  band energies     occupation 
      1       3.2680      2.00000
      2       3.4283      2.00000
      3       3.6749      2.00000
      4       4.8266      2.00000
      5       5.3601      2.02993
      6       8.8020      0.00000
      7      14.3599      0.00000
      8      16.4500      0.00000
      9      19.6850      0.00000

 k-point    42 :      -0.3125    0.3125    0.1875
  band No.  band energies     occupation 
      1       3.0815      2.00000
      2       3.3503      2.00000
      3       3.9733      2.00000
      4       4.7580      2.00000
      5       5.6212      1.71855
      6      10.6064      0.00000
      7      11.9019      0.00000
      8      17.2901      0.00000
      9      18.3053      0.00000

 k-point    43 :      -0.1875    0.3125    0.1875
  band No.  band energies     occupation 
      1       2.9939      2.00000
      2       3.2224      2.00000
      3       3.9586      2.00000
      4       5.0195      2.00001
      5       5.4192      2.05613
      6       7.8604      0.00000
      7      15.5459      0.00000
      8      17.5341      0.00000
      9      19.1352      0.00000

 k-point    44 :       0.4375    0.4375    0.1875
  band No.  band energies     occupation 
      1       2.7460      2.00000
      2       3.1785      2.00000
      3       4.3382      2.00000
      4       4.7962      2.00000
      5       5.7071      1.08675
      6       7.4077      0.00000
      7      15.2270      0.00000
      8      18.9096      0.00000
      9      19.8904      0.00000

 k-point    45 :      -0.4375    0.4375    0.1875
  band No.  band energies     occupation 
      1       2.8681      2.00000
      2       3.0399      2.00000
      3       4.2616      2.00000
      4       5.1816      2.00100
      5       5.6559      1.49375
      6       9.3675      0.00000
      7      14.7668      0.00000
      8      16.4132      0.00000
      9      17.1930      0.00000

 k-point    46 :      -0.3125    0.4375    0.1875
  band No.  band energies     occupation 
      1       3.0165      2.00000
      2       3.3454      2.00000
      3       3.8692      2.00000
      4       4.9486      2.00000
      5       5.8147      0.27455
      6      12.0912      0.00000
      7      13.2377      0.00000
      8      14.7148      0.00000
      9      16.0180      0.00000

 k-point    47 :      -0.1875    0.4375    0.1875
  band No.  band energies     occupation 
      1       3.1514      2.00000
      2       3.3517      2.00000
      3       3.7599      2.00000
      4       4.9394      2.00000
      5       5.6356      1.63179
      6      10.3777      0.00000
      7      13.6492      0.00000
      8      15.7730      0.00000
      9      17.3707      0.00000

 k-point    48 :      -0.4375   -0.4375    0.1875
  band No.  band energies     occupation 
      1       2.5893      2.00000
      2       2.8570      2.00000
      3       4.9004      2.00000
      4       5.2891      2.00987
      5       5.7250      0.93561
      6      10.4410      0.00000
      7      13.8049      0.00000
      8      14.7558      0.00000
      9      18.5720      0.00000

 k-point    49 :      -0.3125   -0.4375    0.1875
  band No.  band energies     occupation 
      1       2.7635      2.00000
      2       2.9572      2.00000
      3       4.4939      2.00000
      4       5.1917      2.00128
      5       5.8160      0.26725
      6      10.9073      0.00000
      7      14.0613      0.00000
      8      14.9007      0.00000
      9      16.6456      0.00000

 k-point    50 :      -0.3125   -0.3125    0.1875
  band No.  band energies     occupation 
      1       2.6626      2.00000
      2       2.9653      2.00000
      3       4.6836      2.00000
      4       5.0748      2.00005
      5       5.7558      0.68158
      6       8.9475      0.00000
      7      14.4083      0.00000
      8      16.5279      0.00000
      9      19.0227      0.00000

 k-point    51 :       0.3125    0.3125    0.3125
  band No.  band energies     occupation 
      1       2.2310      2.00000
      2       4.0564      2.00000
      3       4.0564      2.00000
      4       4.5219      2.00000
      5       5.2435      2.00407
      6       5.2435      2.00407
      7      15.7315      0.00000
      8      22.5300      0.00000
      9      25.1385      0.00000

 k-point    52 :       0.4375    0.3125    0.3125
  band No.  band energies     occupation 
      1       2.5892      2.00000
      2       3.8778      2.00000
      3       4.1831      2.00000
      4       4.3733      2.00000
      5       5.1350      2.00030
      6       6.5462      0.00000
      7      14.6163      0.00000
      8      20.3888      0.00000
      9      23.3148      0.00000

 k-point    53 :      -0.4375    0.3125    0.3125
  band No.  band energies     occupation 
      1       3.1411      2.00000
      2       3.6174      2.00000
      3       3.9080      2.00000
      4       4.5803      2.00000
      5       5.1598      2.00058
      6       8.5741      0.00000
      7      14.2096      0.00000
      8      16.3188      0.00000
      9      22.6770      0.00000

 k-point    54 :      -0.3125    0.3125    0.3125
  band No.  band energies     occupation 
      1       2.9024      2.00000
      2       3.3894      2.00000
      3       4.1740      2.00000
      4       4.8885      2.00000
      5       5.4864      2.06925
      6      11.1215      0.00000
      7      12.2670      0.00000
      8      15.0385      0.00000
      9      20.3542      0.00000

 k-point    55 :       0.4375    0.4375    0.3125
  band No.  band energies     occupation 
      1       2.5358      2.00000
      2       3.8053      2.00000
      3       4.1839      2.00000
      4       4.4775      2.00000
      5       5.6660      1.41942
      6       6.9993      0.00000
      7      13.2572      0.00000
      8      21.5406      0.00000
      9      22.2916      0.00000

 k-point    56 :      -0.4375    0.4375    0.3125
  band No.  band energies     occupation 
      1       2.9328      2.00000
      2       3.5092      2.00000
      3       4.1019      2.00000
      4       4.5527      2.00000
      5       5.5483      2.00144
      6       8.9388      0.00000
      7      12.5689      0.00000
      8      18.6727      0.00000
      9      19.8226      0.00000

 k-point    57 :      -0.3125    0.4375    0.3125
  band No.  band energies     occupation 
      1       3.0761      2.00000
      2       3.3800      2.00000
      3       3.8830      2.00000
      4       4.8894      2.00000
      5       5.6352      1.63435
      6      11.4471      0.00000
      7      12.5240      0.00000
      8      15.1276      0.00000
      9      18.0094      0.00000

 k-point    58 :      -0.4375   -0.4375    0.3125
  band No.  band energies     occupation 
      1       2.8598      2.00000
      2       3.4453      2.00000
      3       4.2108      2.00000
      4       4.6513      2.00000
      5       5.6293      1.67105
      6      10.2431      0.00000
      7      11.6747      0.00000
      8      17.2138      0.00000
      9      20.6732      0.00000

 k-point    59 :       0.4375    0.4375    0.4375
  band No.  band energies     occupation 
      1       2.2759      2.00000
      2       3.9253      2.00000
      3       3.9253      2.00000
      4       5.6188      1.73205
      5       5.6188      1.73205
      6       6.6667      0.00000
      7      11.9375      0.00000
      8      21.8073      0.00000
      9      24.0976      0.00000

 k-point    60 :      -0.4375    0.4375    0.4375
  band No.  band energies     occupation 
      1       2.5220      2.00000
      2       3.7511      2.00000
      3       4.1060      2.00000
      4       4.9026      2.00000
      5       5.5989      1.83283
      6       8.3879      0.00000
      7      11.3023      0.00000
      8      20.6247      0.00000
      9      22.6290      0.00000


--------------------------------------------------------------------------------------------------------


 soft charge-density along one line, spin component           1
         0         1         2         3         4         5         6         7         8         9
x     5.7539    0.0000    1.1484    0.0000   -0.3095    0.0000   -0.0531    0.0000    0.0200    0.0000
x     0.0028    0.0000    0.0000    0.0000    0.0000    0.0000
y     5.7539    0.0000    1.1484    0.0000   -0.3095    0.0000   -0.0531    0.0000    0.0200    0.0000
y     0.0028    0.0000    0.0000    0.0000    0.0000    0.0000
z     5.7539    0.0000    1.1484    0.0000   -0.3095    0.0000   -0.0531    0.0000    0.0200    0.0000
z     0.0028    0.0000    0.0000    0.0000    0.0000    0.0000
 total charge-density along one line
x    10.0000    0.0000    4.1952    0.0000    0.6979    0.0000    0.0072    0.0000    0.0017    0.0000
x     0.0059    0.0000   -0.0012    0.0000    0.0005    0.0000   -0.0002    0.0000    0.0001    0.0000
x     0.0000    0.0000    0.0000    0.0000    0.0000    0.0000    0.0000    0.0000    0.0000    0.0000
y    10.0000    0.0000    4.1952    0.0000    0.6979    0.0000    0.0072    0.0000    0.0017    0.0000
y     0.0059    0.0000   -0.0012    0.0000    0.0005    0.0000   -0.0002    0.0000    0.0001    0.0000
y     0.0000    0.0000    0.0000    0.0000    0.0000    0.0000    0.0000    0.0000    0.0000    0.0000
z    10.0000    0.0000    4.1952    0.0000    0.6979    0.0000    0.0072    0.0000    0.0017    0.0000
z     0.0059    0.0000   -0.0012    0.0000    0.0005    0.0000   -0.0002    0.0000    0.0001    0.0000
z     0.0000    0.0000    0.0000    0.0000    0.0000    0.0000    0.0000    0.0000    0.0000    0.0000
 
 pseudopotential strength for first ion, spin component:           1
 -3.763   0.000   0.000  -0.013   0.000  -3.941   0.000   0.000
  0.000  -3.753   0.000   0.000  -0.013   0.000  -3.932   0.000
  0.000   0.000  -3.772   0.000   0.000   0.000   0.000  -3.950
 -0.013   0.000   0.000  -3.753   0.000  -0.012   0.000   0.000
  0.000  -0.013   0.000   0.000  -3.763   0.000  -0.012   0.000
 -3.941   0.000   0.000  -0.012   0.000  -4.089   0.000   0.000
  0.000  -3.932   0.000   0.000  -0.012   0.000  -4.080   0.000
  0.000   0.000  -3.950   0.000   0.000   0.000   0.000  -4.097
 -0.012   0.000   0.000  -3.932   0.000  -0.012   0.000   0.000
  0.000  -0.012   0.000   0.000  -3.941   0.000  -0.012   0.000
  0.000   0.000   0.000   0.000   0.000   0.000   0.000   0.000
  0.000   0.000   0.000   0.000   0.000   0.000   0.000   0.000
  0.000   0.000   0.000   0.000   0.000   0.000   0.000   0.000
  0.000   0.000   0.000   0.000   0.000   0.000   0.000   0.000
  0.000   0.000   0.000   0.000   0.000   0.000   0.000   0.000
  0.000   0.000   0.000   0.000   0.000   0.000   0.000   0.000
  0.000   0.000   0.000   0.000   0.000   0.000   0.000   0.000
  0.000   0.000   0.000   0.000   0.000   0.000   0.000   0.000
 total augmentation occupancy for first ion, spin component:           1
  2.258   0.000   0.000  -0.189   0.000  -0.706   0.000   0.000   0.043   0.000   0.000   0.000   0.000   0.000   0.000   0.000
  0.000   2.392   0.000   0.000  -0.189   0.000  -0.737   0.000   0.000   0.043   0.000   0.000   0.000   0.000   0.000   0.000
  0.000   0.000   2.125   0.000   0.000   0.000   0.000  -0.676   0.000   0.000   0.000   0.000   0.000   0.000   0.000   0.000
 -0.189   0.000   0.000   2.392   0.000   0.043   0.000   0.000  -0.737   0.000   0.000   0.000   0.000   0.000   0.000   0.000
  0.000  -0.189   0.000   0.000   2.258   0.000   0.043   0.000   0.000  -0.706   0.000   0.000   0.000   0.000   0.000   0.000
 -0.706   0.000   0.000   0.043   0.000   0.937   0.000   0.000   0.052   0.000   0.000   0.000   0.000   0.000   0.000   0.000
  0.000  -0.737   0.000   0.000   0.043   0.000   0.901   0.000   0.000   0.052   0.000   0.000   0.000   0.000   0.000   0.000
  0.000   0.000  -0.676   0.000   0.000   0.000   0.000   0.974   0.000   0.000   0.000   0.000   0.000   0.000   0.000   0.000
  0.043   0.000   0.000  -0.737   0.000   0.052   0.000   0.000   0.901   0.000   0.000   0.000   0.000   0.000   0.000   0.000
  0.000   0.043   0.000   0.000  -0.706   0.000   0.052   0.000   0.000   0.937   0.000   0.000   0.000   0.000   0.000   0.000
  0.000   0.000   0.000   0.000   0.000   0.000   0.000   0.000   0.000   0.000   1.479  -0.212   0.000   0.000   0.000   0.000
  0.000   0.000   0.000   0.000   0.000   0.000   0.000   0.000   0.000   0.000  -0.212   0.032   0.000   0.000   0.000   0.000
  0.000   0.000   0.000   0.000   0.000   0.000   0.000   0.000   0.000   0.000   0.000   0.000   0.130   0.000   0.000  -0.008
  0.000   0.000   0.000   0.000   0.000   0.000   0.000   0.000   0.000   0.000   0.000   0.000   0.000   0.130   0.000   0.000
  0.000   0.000   0.000   0.000   0.000   0.000   0.000   0.000   0.000   0.000   0.000   0.000   0.000   0.000   0.130   0.000
  0.000   0.000   0.000   0.000   0.000   0.000   0.000   0.000   0.000   0.000   0.000   0.000  -0.008   0.000   0.000   0.000
  0.000   0.000   0.000   0.000   0.000   0.000   0.000   0.000   0.000   0.000   0.000   0.000   0.000  -0.008   0.000   0.000
  0.000   0.000   0.000   0.000   0.000   0.000   0.000   0.000   0.000   0.000   0.000   0.000   0.000   0.000  -0.008   0.000


------------------------ aborting loop because EDIFF is reached ----------------------------------------


    CHARGE:  cpu time    0.06: real time    0.06
    FORLOC:  cpu time    0.00: real time    0.00
    FORNL :  cpu time    0.09: real time    0.09
    STRESS:  cpu time    0.34: real time    0.34
    FORCOR:  cpu time    0.03: real time    0.03
    FORHAR:  cpu time    0.01: real time    0.02
    MIXING:  cpu time    0.00: real time    0.00
    OFIELD:  cpu time    0.00: real time    0.00

  FORCE on cell =-STRESS in cart. coord.  units (eV):
  Direction    XX          YY          ZZ          XY          YZ          ZX
  --------------------------------------------------------------------------------------
  Alpha Z    33.27482    33.27482    33.27482
  Ewald    -257.15136  -257.15136  -257.15136     0.00000     0.00000     0.00000
  Hartree    49.34044    49.34044    49.34044     0.00000     0.00000     0.00000
  E(xc)     -51.76991   -51.76991   -51.76991     0.00000     0.00000     0.00000
  Local      23.04128    23.04109    23.04104     0.00017     0.00007     0.00012
  n-local   -11.80478   -10.01622    -6.47505     0.51611    -0.14963     2.32577
  augment    74.53464    74.53484    74.53489    -0.00018    -0.00007    -0.00013
  Kinetic   134.60725   134.62760   137.36639     0.21164    -0.45783     1.81659
  Fock        0.00000     0.00000     0.00000     0.00000     0.00000     0.00000
  -------------------------------------------------------------------------------------
  Total      -2.62836    -2.62836    -2.62836     0.00000     0.00000     0.00000
  in kB    -214.99481  -214.99481  -214.99481     0.00000     0.00000     0.00000
  external pressure =     -214.99 kB  Pullay stress =        0.00 kB


 VOLUME and BASIS-vectors are now :
 -----------------------------------------------------------------------------
  energy-cutoff  :      350.00
  volume of cell :       19.59
      direct lattice vectors                 reciprocal lattice vectors
     3.025709917  0.000000000  0.000000000     0.330500949 -0.190814812 -0.134926448
     1.512854958  2.620341652  0.000000000     0.000000000  0.381629624 -0.134926448
     1.512854958  0.873447217  2.470481802     0.000000000  0.000000000  0.404779343

  length of vectors
     3.025709917  3.025709917  3.025709917     0.404779343  0.404779343  0.404779343


 FORCES acting on ions
    electron-ion (+dipol)            ewald-force                    non-local-force                 convergence-correction
 -----------------------------------------------------------------------------------------------
   -.237E-13 -.416E-15 0.603E-14   0.259E-15 0.105E-15 0.898E-15   0.397E-22 -.397E-22 0.000E+00   -.283E-13 -.931E-14 -.117E-13
 -----------------------------------------------------------------------------------------------
   -.237E-13 -.416E-15 0.603E-14   0.259E-15 0.105E-15 0.898E-15   0.397E-22 -.397E-22 0.000E+00   -.283E-13 -.931E-14 -.117E-13
 
 
 POSITION                                       TOTAL-FORCE (eV/Angst)
 -----------------------------------------------------------------------------------
      0.00000      0.00000      0.00000         0.000000      0.000000      0.000000
 -----------------------------------------------------------------------------------
    total drift:                                0.000000      0.000000      0.000000


--------------------------------------------------------------------------------------------------------



  FREE ENERGIE OF THE ION-ELECTRON SYSTEM (eV)
  ---------------------------------------------------
  free  energy   TOTEN  =        -4.85549033 eV

  energy  without entropy=       -4.84756190  energy(sigma->0) =       -4.85284752
 


--------------------------------------------------------------------------------------------------------


    POTLOK:  cpu time    0.04: real time    0.04


--------------------------------------------------------------------------------------------------------


 stress matrix after NEB project (eV)
     -2.62836      0.00000      0.00000
      0.00000     -2.62836      0.00000
      0.00000      0.00000     -2.62836
  FORCES: max atom, RMS     0.000000    0.000000
  FORCE total and by dimension    0.000000    0.000000
  Stress total and by dimension    4.552447    2.628356


--------------------------------------------------------------------------------------------------------


  
 reached required accuracy - stopping structural energy minimisation
 writing wavefunctions
     LOOP+:  cpu time    7.91: real time    8.26
    4ORBIT:  cpu time    0.00: real time    0.00

 total amount of memory used by VASP on root node    36557. kBytes
========================================================================

   base      :      30000. kBytes
   nonl-proj :       2588. kBytes
   grid      :       1216. kBytes
   one-center:         15. kBytes
   wavefun   :       2738. kBytes
 
  
  
 General timing and accounting informations for this job:
 ========================================================
  
                  Total CPU time used (sec):        8.509
                            User time (sec):        8.227
                          System time (sec):        0.282
                         Elapsed time (sec):        9.109
  
                   Maximum memory used (kb):           0.
                   Average memory used (kb):           0.
  
                          Minor page faults:         5684
                          Major page faults:            0
                 Voluntary context switches:         6827
