<?xml version="1.0" encoding="ISO-8859-1"?>
<modeling>
 <generator>
  <i name="program" type="string">vasp </i>
  <i name="version" type="string">5.3.5  </i>
  <i name="subversion" type="string">31Mar14 (build Jan 09 2015 16:57:47) complex                          serial </i>
  <i name="platform" type="string">LinuxIFC </i>
  <i name="date" type="string">2015 03 24 </i>
  <i name="time" type="string">14:26:00 </i>
 </generator>
 <incar>
  <i type="string" name="PREC">normal</i>
  <i type="int" name="IBRION">     2</i>
  <i type="int" name="NSW">    30</i>
  <i type="int" name="ISIF">     2</i>
  <i name="ENCUT">    350.00000000</i>
 </incar>
 <kpoints>
  <generation param="Monkhorst-Pack">
   <v type="int" name="divisions">       8        8        8 </v>
   <v name="usershift">      0.00000000       0.00000000       0.00000000 </v>
   <v name="genvec1">      0.12500000       0.00000000       0.00000000 </v>
   <v name="genvec2">      0.00000000       0.12500000       0.00000000 </v>
   <v name="genvec3">      0.00000000       0.00000000       0.12500000 </v>
   <v name="shift">      0.50000000       0.50000000       0.50000000 </v>
  </generation>
  <varray name="kpointlist" >
   <v>       0.06250000       0.06250000       0.06250000 </v>
   <v>       0.18750000       0.06250000       0.06250000 </v>
   <v>       0.31250000       0.06250000       0.06250000 </v>
   <v>       0.43750000       0.06250000       0.06250000 </v>
   <v>      -0.43750000       0.06250000       0.06250000 </v>
   <v>      -0.31250000       0.06250000       0.06250000 </v>
   <v>      -0.18750000       0.06250000       0.06250000 </v>
   <v>      -0.06250000       0.06250000       0.06250000 </v>
   <v>       0.18750000       0.18750000       0.06250000 </v>
   <v>       0.31250000       0.18750000       0.06250000 </v>
   <v>       0.43750000       0.18750000       0.06250000 </v>
   <v>      -0.43750000       0.18750000       0.06250000 </v>
   <v>      -0.31250000       0.18750000       0.06250000 </v>
   <v>      -0.18750000       0.18750000       0.06250000 </v>
   <v>      -0.06250000       0.18750000       0.06250000 </v>
   <v>       0.31250000       0.31250000       0.06250000 </v>
   <v>       0.43750000       0.31250000       0.06250000 </v>
   <v>      -0.43750000       0.31250000       0.06250000 </v>
   <v>      -0.31250000       0.31250000       0.06250000 </v>
   <v>      -0.18750000       0.31250000       0.06250000 </v>
   <v>      -0.06250000       0.31250000       0.06250000 </v>
   <v>       0.43750000       0.43750000       0.06250000 </v>
   <v>      -0.43750000       0.43750000       0.06250000 </v>
   <v>      -0.31250000       0.43750000       0.06250000 </v>
   <v>      -0.18750000       0.43750000       0.06250000 </v>
   <v>      -0.06250000       0.43750000       0.06250000 </v>
   <v>      -0.43750000      -0.43750000       0.06250000 </v>
   <v>      -0.31250000      -0.43750000       0.06250000 </v>
   <v>      -0.18750000      -0.43750000       0.06250000 </v>
   <v>      -0.31250000      -0.31250000       0.06250000 </v>
   <v>      -0.18750000      -0.31250000       0.06250000 </v>
   <v>      -0.18750000      -0.18750000       0.06250000 </v>
   <v>       0.18750000       0.18750000       0.18750000 </v>
   <v>       0.31250000       0.18750000       0.18750000 </v>
   <v>       0.43750000       0.18750000       0.18750000 </v>
   <v>      -0.43750000       0.18750000       0.18750000 </v>
   <v>      -0.31250000       0.18750000       0.18750000 </v>
   <v>      -0.18750000       0.18750000       0.18750000 </v>
   <v>       0.31250000       0.31250000       0.18750000 </v>
   <v>       0.43750000       0.31250000       0.18750000 </v>
   <v>      -0.43750000       0.31250000       0.18750000 </v>
   <v>      -0.31250000       0.31250000       0.18750000 </v>
   <v>      -0.18750000       0.31250000       0.18750000 </v>
   <v>       0.43750000       0.43750000       0.18750000 </v>
   <v>      -0.43750000       0.43750000       0.18750000 </v>
   <v>      -0.31250000       0.43750000       0.18750000 </v>
   <v>      -0.18750000       0.43750000       0.18750000 </v>
   <v>      -0.43750000      -0.43750000       0.18750000 </v>
   <v>      -0.31250000      -0.43750000       0.18750000 </v>
   <v>      -0.31250000      -0.31250000       0.18750000 </v>
   <v>       0.31250000       0.31250000       0.31250000 </v>
   <v>       0.43750000       0.31250000       0.31250000 </v>
   <v>      -0.43750000       0.31250000       0.31250000 </v>
   <v>      -0.31250000       0.31250000       0.31250000 </v>
   <v>       0.43750000       0.43750000       0.31250000 </v>
   <v>      -0.43750000       0.43750000       0.31250000 </v>
   <v>      -0.31250000       0.43750000       0.31250000 </v>
   <v>      -0.43750000      -0.43750000       0.31250000 </v>
   <v>       0.43750000       0.43750000       0.43750000 </v>
   <v>      -0.43750000       0.43750000       0.43750000 </v>
  </varray>
  <varray name="weights" >
   <v>       0.00390625 </v>
   <v>       0.01171875 </v>
   <v>       0.01171875 </v>
   <v>       0.01171875 </v>
   <v>       0.01171875 </v>
   <v>       0.01171875 </v>
   <v>       0.01171875 </v>
   <v>       0.01171875 </v>
   <v>       0.01171875 </v>
   <v>       0.02343750 </v>
   <v>       0.02343750 </v>
   <v>       0.02343750 </v>
   <v>       0.02343750 </v>
   <v>       0.02343750 </v>
   <v>       0.02343750 </v>
   <v>       0.01171875 </v>
   <v>       0.02343750 </v>
   <v>       0.02343750 </v>
   <v>       0.02343750 </v>
   <v>       0.02343750 </v>
   <v>       0.02343750 </v>
   <v>       0.01171875 </v>
   <v>       0.02343750 </v>
   <v>       0.02343750 </v>
   <v>       0.02343750 </v>
   <v>       0.02343750 </v>
   <v>       0.01171875 </v>
   <v>       0.02343750 </v>
   <v>       0.02343750 </v>
   <v>       0.01171875 </v>
   <v>       0.02343750 </v>
   <v>       0.01171875 </v>
   <v>       0.00390625 </v>
   <v>       0.01171875 </v>
   <v>       0.01171875 </v>
   <v>       0.01171875 </v>
   <v>       0.01171875 </v>
   <v>       0.01171875 </v>
   <v>       0.01171875 </v>
   <v>       0.02343750 </v>
   <v>       0.02343750 </v>
   <v>       0.02343750 </v>
   <v>       0.02343750 </v>
   <v>       0.01171875 </v>
   <v>       0.02343750 </v>
   <v>       0.02343750 </v>
   <v>       0.02343750 </v>
   <v>       0.01171875 </v>
   <v>       0.02343750 </v>
   <v>       0.01171875 </v>
   <v>       0.00390625 </v>
   <v>       0.01171875 </v>
   <v>       0.01171875 </v>
   <v>       0.01171875 </v>
   <v>       0.01171875 </v>
   <v>       0.02343750 </v>
   <v>       0.02343750 </v>
   <v>       0.01171875 </v>
   <v>       0.00390625 </v>
   <v>       0.01171875 </v>
  </varray>
 </kpoints>
 <parameters>
  <separator name="general" >
   <i type="string" name="SYSTEM">unknown system</i>
   <i type="logical" name="LCOMPAT"> F  </i>
  </separator>
  <separator name="electronic" >
   <i type="string" name="PREC">normal</i>
   <i name="ENMAX">    350.00000000</i>
   <i name="ENAUG">    416.23000000</i>
   <i name="EDIFF">      0.00010000</i>
   <i type="int" name="IALGO">    38</i>
   <i type="int" name="IWAVPR">    11</i>
   <i type="int" name="NBANDS">     9</i>
   <i name="NELECT">     10.00000000</i>
   <i type="int" name="TURBO">     0</i>
   <i type="int" name="IRESTART">     0</i>
   <i type="int" name="NREBOOT">     0</i>
   <i type="int" name="NMIN">     0</i>
   <i name="EREF">      0.00000000</i>
   <separator name="electronic smearing" >
    <i type="int" name="ISMEAR">     1</i>
    <i name="SIGMA">      0.20000000</i>
    <i name="KSPACING">      0.50000000</i>
    <i type="logical" name="KGAMMA"> T  </i>
   </separator>
   <separator name="electronic projectors" >
    <i type="logical" name="LREAL"> F  </i>
    <v name="ROPT">      0.00000000</v>
    <i type="int" name="LMAXPAW">  -100</i>
    <i type="int" name="LMAXMIX">     2</i>
    <i type="logical" name="NLSPLINE"> F  </i>
   </separator>
   <separator name="electronic startup" >
    <i type="int" name="ISTART">     0</i>
    <i type="int" name="ICHARG">     2</i>
    <i type="int" name="INIWAV">     1</i>
   </separator>
   <separator name="electronic spin" >
    <i type="int" name="ISPIN">     1</i>
    <i type="logical" name="LNONCOLLINEAR"> F  </i>
    <v name="MAGMOM">      1.00000000</v>
    <i name="NUPDOWN">     -1.00000000</i>
    <i type="logical" name="LSORBIT"> F  </i>
    <v name="SAXIS">      0.00000000      0.00000000      1.00000000</v>
    <i type="logical" name="LSPIRAL"> F  </i>
    <v name="QSPIRAL">      0.00000000      0.00000000      0.00000000</v>
    <i type="logical" name="LZEROZ"> F  </i>
   </separator>
   <separator name="electronic exchange-correlation" >
    <i type="logical" name="LASPH"> F  </i>
    <i type="logical" name="LMETAGGA"> F  </i>
   </separator>
   <separator name="electronic convergence" >
    <i type="int" name="NELM">    60</i>
    <i type="int" name="NELMDL">    -5</i>
    <i type="int" name="NELMIN">     2</i>
    <i name="ENINI">    350.00000000</i>
    <separator name="electronic convergence detail" >
     <i type="logical" name="LDIAG"> T  </i>
     <i type="logical" name="LSUBROT"> F  </i>
     <i name="WEIMIN">      0.00100000</i>
     <i name="EBREAK">      0.00000278</i>
     <i name="DEPER">      0.30000000</i>
     <i type="int" name="NRMM">     4</i>
     <i name="TIME">      0.40000000</i>
    </separator>
   </separator>
   <separator name="electronic mixer" >
    <i name="AMIX">      0.40000000</i>
    <i name="BMIX">      1.00000000</i>
    <i name="AMIN">      0.10000000</i>
    <i name="AMIX_MAG">      1.60000000</i>
    <i name="BMIX_MAG">      1.00000000</i>
    <separator name="electronic mixer details" >
     <i type="int" name="IMIX">     4</i>
     <i type="int" name="MAXMIX">   -45</i>
     <i name="WC">    100.00000000</i>
     <i type="int" name="INIMIX">     1</i>
     <i type="int" name="MIXPRE">     1</i>
     <i type="int" name="MREMOVE">     5</i>
    </separator>
   </separator>
   <separator name="electronic dipolcorrection" >
    <i type="logical" name="LDIPOL"> F  </i>
    <i type="logical" name="LMONO"> F  </i>
    <i type="int" name="IDIPOL">     0</i>
    <i name="EPSILON">      1.00000000</i>
    <v name="DIPOL">   -100.00000000   -100.00000000   -100.00000000</v>
    <i name="EFIELD">      0.00000000</i>
   </separator>
  </separator>
  <separator name="grids" >
   <i type="int" name="NGX">    14</i>
   <i type="int" name="NGY">    14</i>
   <i type="int" name="NGZ">    14</i>
   <i type="int" name="NGXF">    28</i>
   <i type="int" name="NGYF">    28</i>
   <i type="int" name="NGZF">    28</i>
   <i type="logical" name="ADDGRID"> F  </i>
  </separator>
  <separator name="ionic" >
   <i type="int" name="NSW">    30</i>
   <i type="int" name="IBRION">     2</i>
   <i type="int" name="ISIF">     2</i>
   <i name="PSTRESS">      0.00000000</i>
   <i name="EDIFFG">      0.00100000</i>
   <i type="int" name="NFREE">     1</i>
   <i name="POTIM">      0.50000000</i>
   <i name="SMASS">     -3.00000000</i>
   <i name="SCALEE">      1.00000000</i>
  </separator>
  <separator name="ionic md" >
   <i name="TEBEG">      0.00010000</i>
   <i name="TEEND">      0.00010000</i>
   <i type="int" name="NBLOCK">     1</i>
   <i type="int" name="KBLOCK">    30</i>
   <i type="int" name="NPACO">   256</i>
   <i name="APACO">     16.00000000</i>
  </separator>
  <separator name="symmetry" >
   <i type="int" name="ISYM">     2</i>
   <i name="SYMPREC">      0.00001000</i>
  </separator>
  <separator name="dos" >
   <i type="logical" name="LORBIT"> F  </i>
   <v name="RWIGS">     -1.00000000</v>
   <i type="int" name="NEDOS">   301</i>
   <i name="EMIN">     10.00000000</i>
   <i name="EMAX">    -10.00000000</i>
   <i name="EFERMI">      0.00000000</i>
  </separator>
  <separator name="writing" >
   <i type="int" name="NWRITE">     2</i>
   <i type="logical" name="LWAVE"> T  </i>
   <i type="logical" name="LCHARG"> T  </i>
   <i type="logical" name="LPARD"> F  </i>
   <i type="logical" name="LVTOT"> F  </i>
   <i type="logical" name="LVHAR"> F  </i>
   <i type="logical" name="LELF"> F  </i>
   <i type="logical" name="LOPTICS"> F  </i>
   <v name="STM">      0.00000000      0.00000000      0.00000000      0.00000000      0.00000000      0.00000000      0.00000000</v>
  </separator>
  <separator name="performance" >
   <i type="int" name="NPAR">     1</i>
   <i type="int" name="NSIM">     4</i>
   <i type="int" name="NBLK">    -1</i>
   <i type="logical" name="LPLANE"> T  </i>
   <i type="logical" name="LSCALAPACK"> F  </i>
   <i type="logical" name="LSCAAWARE"> F  </i>
   <i type="logical" name="LSCALU"> F  </i>
   <i type="logical" name="LASYNC"> F  </i>
   <i type="logical" name="LORBITALREAL"> F  </i>
  </separator>
  <separator name="miscellaneous" >
   <i type="int" name="IDIOT">     3</i>
   <i type="logical" name="LMUSIC"> F  </i>
   <v name="POMASS">    106.42000000</v>
   <v name="DARWINR">      0.00000000</v>
   <v name="DARWINV">      1.00000000</v>
   <i type="logical" name="LCORR"> T  </i>
  </separator>
  <i type="logical" name="GGA_COMPAT"> T  </i>
  <i type="logical" name="LBERRY"> F  </i>
  <i type="int" name="ICORELEVEL">     0</i>
  <i type="logical" name="LDAU"> F  </i>
  <i type="int" name="I_CONSTRAINED_M">     0</i>
  <separator name="electronic exchange-correlation" >
   <i type="string" name="GGA">--</i>
   <i type="int" name="VOSKOWN">     0</i>
   <i type="logical" name="LHFCALC"> F  </i>
   <i type="string" name="PRECFOCK"></i>
   <i type="logical" name="LSYMGRAD"> F  </i>
   <i type="logical" name="LHFONE"> F  </i>
   <i type="logical" name="LRHFCALC"> F  </i>
   <i type="logical" name="LTHOMAS"> F  </i>
   <i type="logical" name="LMODELHF"> F  </i>
   <i name="ENCUT4O">     -1.00000000</i>
   <i type="int" name="EXXOEP">     0</i>
   <i type="int" name="FOURORBIT">     0</i>
   <i name="AEXX">      0.00000000</i>
   <i name="HFALPHA">      0.00000000</i>
   <i name="MCALPHA">      0.00000000</i>
   <i name="ALDAX">      1.00000000</i>
   <i name="AGGAX">      1.00000000</i>
   <i name="ALDAC">      1.00000000</i>
   <i name="AGGAC">      1.00000000</i>
   <i type="int" name="NKREDX">     1</i>
   <i type="int" name="NKREDY">     1</i>
   <i type="int" name="NKREDZ">     1</i>
   <i type="logical" name="SHIFTRED"> F  </i>
   <i type="logical" name="ODDONLY"> F  </i>
   <i type="logical" name="EVENONLY"> F  </i>
   <i type="int" name="LMAXFOCK">     0</i>
   <i type="int" name="NMAXFOCKAE">     0</i>
   <i type="logical" name="LFOCKAEDFT"> F  </i>
   <i name="HFSCREEN">      0.00000000</i>
   <i name="HFSCREENC">      0.00000000</i>
   <i type="int" name="NBANDSGWLOW">     0</i>
  </separator>
  <separator name="vdW DFT" >
   <i type="logical" name="LUSE_VDW"> F  </i>
   <i name="Zab_VDW">     -0.84910000</i>
   <i name="PARAM1">      0.12340000</i>
   <i name="PARAM2">      1.00000000</i>
   <i name="PARAM3">      0.00000000</i>
  </separator>
  <separator name="model GW" >
   <i type="int" name="MODEL_GW">     0</i>
   <i name="MODEL_EPS0">     11.75217145</i>
   <i name="MODEL_ALPHA">      1.00000000</i>
  </separator>
  <separator name="linear response parameters" >
   <i type="logical" name="LEPSILON"> F  </i>
   <i type="logical" name="LRPA"> F  </i>
   <i type="logical" name="LNABLA"> F  </i>
   <i type="logical" name="LVEL"> F  </i>
   <i type="int" name="KINTER">     0</i>
   <i name="CSHIFT">      0.10000000</i>
   <i name="OMEGAMAX">     -1.00000000</i>
   <i name="DEG_THRESHOLD">      0.00200000</i>
  </separator>
  <separator name="orbital magnetization" >
   <i type="logical" name="NUCIND"> F  </i>
   <v name="MAGPOS">      0.00000000      0.00000000      0.00000000</v>
   <i type="logical" name="LNICSALL"> T  </i>
   <i type="logical" name="ORBITALMAG"> F  </i>
   <i type="logical" name="LMAGBLOCH"> F  </i>
   <i type="logical" name="LCHIMAG"> F  </i>
   <i type="logical" name="LGAUGE"> T  </i>
   <i type="int" name="MAGATOM">     0</i>
   <v name="MAGDIPOL">      0.00000000      0.00000000      0.00000000</v>
   <v name="AVECCONST">      0.00000000      0.00000000      0.00000000</v>
  </separator>
  <separator name="response functions" >
   <i type="logical" name="LADDER"> F  </i>
   <i type="logical" name="LFXC"> F  </i>
   <i type="logical" name="LHARTREE"> T  </i>
   <i type="int" name="IBSE">     0</i>
   <i type="logical" name="LTCTE"> F  </i>
   <i type="logical" name="LTETE"> F  </i>
   <i type="logical" name="LTRIPLET"> F  </i>
   <i type="logical" name="LFXCEPS"> F  </i>
   <i type="logical" name="LFXHEG"> F  </i>
   <i type="logical" name="L2ORDER"> F  </i>
   <i type="logical" name="LUSEW"> F  </i>
   <i name="ENCUTGW">     -2.00000000</i>
   <i name="ENCUTGWSOFT">     -2.00000000</i>
   <i name="ENCUTLF">     -1.00000000</i>
   <i type="int" name="LMAXMP2">    -1</i>
   <i name="SCISSOR">      0.00000000</i>
   <i type="int" name="NOMEGA">     0</i>
   <i type="int" name="NOMEGAR">     0</i>
   <i type="int" name="NBANDSGW">    -1</i>
   <i type="int" name="NBANDSO">    -1</i>
   <i type="int" name="NBANDSV">    -1</i>
   <i type="int" name="NELM">     1</i>
   <i type="int" name="DIM">     3</i>
   <i type="int" name="ANTIRES">     0</i>
   <i name="OMEGAMAX">    -30.00000000</i>
   <i name="OMEGAMIN">    -30.00000000</i>
   <i name="OMEGATL">   -200.00000000</i>
   <i type="int" name="OMEGAGRID">     0</i>
   <i name="CSHIFT">     -0.10000000</i>
   <i type="logical" name="SELFENERGY"> F  </i>
   <i type="logical" name="LSPECTRAL"> F  </i>
   <i type="logical" name="ODDONLYGW"> F  </i>
   <i type="logical" name="EVENONLYGW"> F  </i>
   <i type="int" name="NKREDLFX">     1</i>
   <i type="int" name="NKREDLFY">     1</i>
   <i type="int" name="NKREDLFZ">     1</i>
   <i type="int" name="MAXMEM">  1800</i>
   <i type="int" name="TELESCOPE">     0</i>
   <i type="int" name="TAUPAR">     1</i>
  </separator>
  <separator name="External order field" >
   <i name="OFIELD_KAPPA">      0.00000000</i>
   <v name="OFIELD_K">      0.00000000      0.00000000      0.00000000</v>
   <i name="OFIELD_Q6_NEAR">      0.00000000</i>
   <i name="OFIELD_Q6_FAR">      0.00000000</i>
   <i name="OFIELD_A">      0.00000000</i>
  </separator>
 </parameters>
 <atominfo>
  <atoms>       1 </atoms>
  <types>       1 </types>
  <array name="atoms" >
   <dimension dim="1">ion</dimension>
   <field type="string">element</field>
   <field type="int">atomtype</field>
   <set>
    <rc><c>Pd</c><c>   1</c></rc>
   </set>
  </array>
  <array name="atomtypes" >
   <dimension dim="1">type</dimension>
   <field type="int">atomspertype</field>
   <field type="string">element</field>
   <field>mass</field>
   <field>valence</field>
   <field type="string">pseudopotential</field>
   <set>
    <rc><c>   1</c><c>Pd</c><c>    106.42000000</c><c>     10.00000000</c><c>  PAW_PBE Pd 04Jan2005                  </c></rc>
   </set>
  </array>
 </atominfo>
 <structure name="initialpos" >
  <crystal>
   <varray name="basis" >
    <v>       3.02570992       0.00000000       0.00000000 </v>
    <v>       1.51285496       2.62034165       0.00000000 </v>
    <v>       1.51285496       0.87344722       2.47048180 </v>
   </varray>
   <i name="volume">     19.58695241 </i>
   <varray name="rec_basis" >
    <v>       0.33050095      -0.19081481      -0.13492645 </v>
    <v>       0.00000000       0.38162962      -0.13492645 </v>
    <v>       0.00000000       0.00000000       0.40477934 </v>
   </varray>
  </crystal>
  <varray name="positions" >
   <v>       0.00000000       0.00000000       0.00000000 </v>
  </varray>
 </structure>
 <calculation>
  <scstep>
   <time name="dav">    0.85    0.85</time>
   <time name="total">    0.89    0.90</time>
   <energy>
    <i name="alphaZ">     33.27481664 </i>
    <i name="ewald">   -771.45405524 </i>
    <i name="hartreedc">   -155.59823930 </i>
    <i name="XCdc">    -29.94315968 </i>
    <i name="pawpsdc">    806.73831454 </i>
    <i name="pawaedc">   -744.51602449 </i>
    <i name="eentropy">     -0.00102148 </i>
    <i name="bandstr">     78.61360564 </i>
    <i name="atom">    809.72612850 </i>
    <i name="e_fr_energy">     26.84036514 </i>
    <i name="e_wo_entrp">     26.84138662 </i>
    <i name="e_0_energy">     26.84070563 </i>
   </energy>
  </scstep>
  <scstep>
   <time name="dav">    0.79    0.79</time>
   <time name="total">    0.80    0.86</time>
   <energy>
    <i name="e_fr_energy">     -4.67694909 </i>
    <i name="e_wo_entrp">     -4.66898288 </i>
    <i name="e_0_energy">     -4.67429369 </i>
   </energy>
  </scstep>
  <scstep>
   <time name="dav">    0.87    0.87</time>
   <time name="total">    0.88    0.89</time>
   <energy>
    <i name="e_fr_energy">     -5.02457184 </i>
    <i name="e_wo_entrp">     -5.01430413 </i>
    <i name="e_0_energy">     -5.02114927 </i>
   </energy>
  </scstep>
  <scstep>
   <time name="dav">    0.81    0.81</time>
   <time name="total">    0.82    0.83</time>
   <energy>
    <i name="e_fr_energy">     -5.02610021 </i>
    <i name="e_wo_entrp">     -5.01584388 </i>
    <i name="e_0_energy">     -5.02268143 </i>
   </energy>
  </scstep>
  <scstep>
   <time name="dav">    0.80    0.80</time>
   <time name="total">    0.87    0.88</time>
   <energy>
    <i name="e_fr_energy">     -5.02612176 </i>
    <i name="e_wo_entrp">     -5.01586537 </i>
    <i name="e_0_energy">     -5.02270296 </i>
   </energy>
  </scstep>
  <scstep>
   <time name="dav">    0.72    0.72</time>
   <time name="total">    0.82    0.84</time>
   <energy>
    <i name="e_fr_energy">     -4.85854673 </i>
    <i name="e_wo_entrp">     -4.85078722 </i>
    <i name="e_0_energy">     -4.85596023 </i>
   </energy>
  </scstep>
  <scstep>
   <time name="dav">    0.70    0.70</time>
   <time name="total">    0.80    0.83</time>
   <energy>
    <i name="e_fr_energy">     -4.85604393 </i>
    <i name="e_wo_entrp">     -4.84800889 </i>
    <i name="e_0_energy">     -4.85336559 </i>
   </energy>
  </scstep>
  <scstep>
   <time name="dav">    0.76    0.76</time>
   <time name="total">    0.86    0.99</time>
   <energy>
    <i name="e_fr_energy">     -4.85547358 </i>
    <i name="e_wo_entrp">     -4.84753737 </i>
    <i name="e_0_energy">     -4.85282818 </i>
   </energy>
  </scstep>
  <scstep>
   <time name="dav">    0.49    0.49</time>
   <time name="total">    0.53    0.55</time>
   <energy>
    <i name="alphaZ">     33.27481664 </i>
    <i name="ewald">   -771.45405524 </i>
    <i name="hartreedc">   -148.00457263 </i>
    <i name="XCdc">    -30.18906472 </i>
    <i name="pawpsdc">    865.36156957 </i>
    <i name="pawaedc">   -804.21407471 </i>
    <i name="eentropy">     -0.00792843 </i>
    <i name="bandstr">     40.65169069 </i>
    <i name="atom">    809.72612850 </i>
    <i name="e_fr_energy">     -4.85549033 </i>
    <i name="e_wo_entrp">     -4.84756190 </i>
    <i name="e_0_energy">     -4.85284752 </i>
   </energy>
  </scstep>
  <structure>
   <crystal>
    <varray name="basis" >
     <v>       3.02570992       0.00000000       0.00000000 </v>
     <v>       1.51285496       2.62034165       0.00000000 </v>
     <v>       1.51285496       0.87344722       2.47048180 </v>
    </varray>
    <i name="volume">     19.58695241 </i>
    <varray name="rec_basis" >
     <v>       0.33050095      -0.19081481      -0.13492645 </v>
     <v>       0.00000000       0.38162962      -0.13492645 </v>
     <v>       0.00000000       0.00000000       0.40477934 </v>
    </varray>
   </crystal>
   <varray name="positions" >
    <v>       0.00000000       0.00000000       0.00000000 </v>
   </varray>
  </structure>
  <varray name="forces" >
   <v>       0.00000000       0.00000000       0.00000000 </v>
  </varray>
  <varray name="stress" >
   <v>    -214.99481089       0.00000000       0.00000000 </v>
   <v>       0.00000000    -214.99481089       0.00000000 </v>
   <v>       0.00000000       0.00000000    -214.99481089 </v>
  </varray>
  <energy>
   <i name="e_fr_energy">     -4.85549033 </i>
   <i name="e_wo_entrp">     -4.85284752 </i>
   <i name="e_0_energy">     -0.00792843 </i>
  </energy>
  <time name="totalsc">    7.91    8.26</time>
  <eigenvalues>
   <array>
    <dimension dim="1">band</dimension>
    <dimension dim="2">kpoint</dimension>
    <dimension dim="3">spin</dimension>
    <field>eigene</field>
    <field>occ</field>
    <set>
     <set comment="spin 1">
      <set comment="kpoint 1">
       <r>    0.6360    1.0000 </r>
       <r>    3.8907    1.0000 </r>
       <r>    3.9520    1.0000 </r>
       <r>    3.9520    1.0000 </r>
       <r>    4.9170    1.0000 </r>
       <r>    4.9170    1.0000 </r>
       <r>   22.4285    0.0000 </r>
       <r>   24.6675    0.0000 </r>
       <r>   25.6460    0.0000 </r>
      </set>
      <set comment="kpoint 2">
       <r>    1.2003    1.0000 </r>
       <r>    3.7496    1.0000 </r>
       <r>    4.0897    1.0000 </r>
       <r>    4.1071    1.0000 </r>
       <r>    4.7872    1.0000 </r>
       <r>    4.9945    1.0000 </r>
       <r>   21.5388    0.0000 </r>
       <r>   22.8188    0.0000 </r>
       <r>   24.9366    0.0000 </r>
      </set>
      <set comment="kpoint 3">
       <r>    2.1599    1.0000 </r>
       <r>    3.9167    1.0000 </r>
       <r>    4.1378    1.0000 </r>
       <r>    4.1467    1.0000 </r>
       <r>    4.9438    1.0000 </r>
       <r>    5.3593    1.0148 </r>
       <r>   17.2528    0.0000 </r>
       <r>   22.3385    0.0000 </r>
       <r>   24.3886    0.0000 </r>
      </set>
      <set comment="kpoint 4">
       <r>    2.3620    1.0000 </r>
       <r>    3.9290    1.0000 </r>
       <r>    4.0019    1.0000 </r>
       <r>    5.1384    1.0002 </r>
       <r>    5.4232    1.0289 </r>
       <r>    6.4289    0.0000 </r>
       <r>   13.1054    0.0000 </r>
       <r>   21.7688    0.0000 </r>
       <r>   23.3204    0.0000 </r>
      </set>
      <set comment="kpoint 5">
       <r>    2.3321    1.0000 </r>
       <r>    3.8615    1.0000 </r>
       <r>    3.9617    1.0000 </r>
       <r>    5.3665    1.0162 </r>
       <r>    5.6813    0.6498 </r>
       <r>    7.5973    0.0000 </r>
       <r>   11.2288    0.0000 </r>
       <r>   21.6478    0.0000 </r>
       <r>   23.3882    0.0000 </r>
      </set>
      <set comment="kpoint 6">
       <r>    2.3596    1.0000 </r>
       <r>    3.9639    1.0000 </r>
       <r>    4.0679    1.0000 </r>
       <r>    4.6849    1.0000 </r>
       <r>    5.4999    1.0320 </r>
       <r>    5.7824    0.2401 </r>
       <r>   14.3993    0.0000 </r>
       <r>   22.1791    0.0000 </r>
       <r>   23.5778    0.0000 </r>
      </set>
      <set comment="kpoint 7">
       <r>    1.8775    1.0000 </r>
       <r>    3.7401    1.0000 </r>
       <r>    4.1447    1.0000 </r>
       <r>    4.1740    1.0000 </r>
       <r>    4.9067    1.0000 </r>
       <r>    5.1236    1.0001 </r>
       <r>   18.7272    0.0000 </r>
       <r>   22.9555    0.0000 </r>
       <r>   24.2668    0.0000 </r>
      </set>
      <set comment="kpoint 8">
       <r>    0.9266    1.0000 </r>
       <r>    3.7831    1.0000 </r>
       <r>    4.0497    1.0000 </r>
       <r>    4.0527    1.0000 </r>
       <r>    4.8036    1.0000 </r>
       <r>    4.9759    1.0000 </r>
       <r>   22.3793    0.0000 </r>
       <r>   23.6158    0.0000 </r>
       <r>   24.9057    0.0000 </r>
      </set>
      <set comment="kpoint 9">
       <r>    1.4710    1.0000 </r>
       <r>    3.5734    1.0000 </r>
       <r>    4.2341    1.0000 </r>
       <r>    4.2495    1.0000 </r>
       <r>    4.6562    1.0000 </r>
       <r>    5.0861    1.0000 </r>
       <r>   21.8154    0.0000 </r>
       <r>   23.0568    0.0000 </r>
       <r>   23.5547    0.0000 </r>
      </set>
      <set comment="kpoint 10">
       <r>    2.3295    1.0000 </r>
       <r>    3.3871    1.0000 </r>
       <r>    4.1195    1.0000 </r>
       <r>    4.4929    1.0000 </r>
       <r>    4.9087    1.0000 </r>
       <r>    5.4390    1.0321 </r>
       <r>   19.1184    0.0000 </r>
       <r>   20.9571    0.0000 </r>
       <r>   23.4896    0.0000 </r>
      </set>
      <set comment="kpoint 11">
       <r>    2.7078    1.0000 </r>
       <r>    3.7571    1.0000 </r>
       <r>    3.9662    1.0000 </r>
       <r>    4.4113    1.0000 </r>
       <r>    5.4920    1.0338 </r>
       <r>    6.7491    0.0000 </r>
       <r>   14.7660    0.0000 </r>
       <r>   20.5206    0.0000 </r>
       <r>   21.6086    0.0000 </r>
      </set>
      <set comment="kpoint 12">
       <r>    2.6782    1.0000 </r>
       <r>    3.6363    1.0000 </r>
       <r>    4.2655    1.0000 </r>
       <r>    4.5573    1.0000 </r>
       <r>    5.6419    0.7955 </r>
       <r>    8.9635    0.0000 </r>
       <r>   11.3683    0.0000 </r>
       <r>   20.1235    0.0000 </r>
       <r>   20.9185    0.0000 </r>
      </set>
      <set comment="kpoint 13">
       <r>    2.7485    1.0000 </r>
       <r>    3.7240    1.0000 </r>
       <r>    4.2158    1.0000 </r>
       <r>    4.3950    1.0000 </r>
       <r>    5.3601    1.0150 </r>
       <r>    7.5600    0.0000 </r>
       <r>   13.4920    0.0000 </r>
       <r>   19.4462    0.0000 </r>
       <r>   22.0775    0.0000 </r>
      </set>
      <set comment="kpoint 14">
       <r>    2.6313    1.0000 </r>
       <r>    3.5173    1.0000 </r>
       <r>    4.0036    1.0000 </r>
       <r>    4.4687    1.0000 </r>
       <r>    4.8000    1.0000 </r>
       <r>    5.9447   -0.0341 </r>
       <r>   17.6656    0.0000 </r>
       <r>   19.6305    0.0000 </r>
       <r>   23.7904    0.0000 </r>
      </set>
      <set comment="kpoint 15">
       <r>    1.7085    1.0000 </r>
       <r>    3.6029    1.0000 </r>
       <r>    4.1770    1.0000 </r>
       <r>    4.2495    1.0000 </r>
       <r>    4.7185    1.0000 </r>
       <r>    5.1614    1.0003 </r>
       <r>   20.3369    0.0000 </r>
       <r>   22.0071    0.0000 </r>
       <r>   24.5852    0.0000 </r>
      </set>
      <set comment="kpoint 16">
       <r>    2.5900    1.0000 </r>
       <r>    3.0385    1.0000 </r>
       <r>    4.5627    1.0000 </r>
       <r>    4.8620    1.0000 </r>
       <r>    5.3200    1.0083 </r>
       <r>    5.3991    1.0235 </r>
       <r>   19.4373    0.0000 </r>
       <r>   20.4107    0.0000 </r>
       <r>   21.1059    0.0000 </r>
      </set>
      <set comment="kpoint 17">
       <r>    2.7493    1.0000 </r>
       <r>    2.9409    1.0000 </r>
       <r>    4.4988    1.0000 </r>
       <r>    5.1320    1.0001 </r>
       <r>    5.5359    1.0126 </r>
       <r>    7.0063    0.0000 </r>
       <r>   16.8663    0.0000 </r>
       <r>   18.5540    0.0000 </r>
       <r>   18.8505    0.0000 </r>
      </set>
      <set comment="kpoint 18">
       <r>    2.8284    1.0000 </r>
       <r>    3.2392    1.0000 </r>
       <r>    4.2516    1.0000 </r>
       <r>    4.9068    1.0000 </r>
       <r>    5.6890    0.6185 </r>
       <r>    9.7365    0.0000 </r>
       <r>   13.0347    0.0000 </r>
       <r>   16.8220    0.0000 </r>
       <r>   18.9953    0.0000 </r>
      </set>
      <set comment="kpoint 19">
       <r>    3.1141    1.0000 </r>
       <r>    3.5186    1.0000 </r>
       <r>    3.8900    1.0000 </r>
       <r>    4.7482    1.0000 </r>
       <r>    5.3817    1.0195 </r>
       <r>    9.8669    0.0000 </r>
       <r>   13.2719    0.0000 </r>
       <r>   15.5920    0.0000 </r>
       <r>   20.3723    0.0000 </r>
      </set>
      <set comment="kpoint 20">
       <r>    3.1320    1.0000 </r>
       <r>    3.6107    1.0000 </r>
       <r>    3.7782    1.0000 </r>
       <r>    4.6025    1.0000 </r>
       <r>    5.0584    1.0000 </r>
       <r>    7.5458    0.0000 </r>
       <r>   15.2874    0.0000 </r>
       <r>   17.3192    0.0000 </r>
       <r>   22.1067    0.0000 </r>
      </set>
      <set comment="kpoint 21">
       <r>    2.4656    1.0000 </r>
       <r>    3.9389    1.0000 </r>
       <r>    4.0490    1.0000 </r>
       <r>    4.2312    1.0000 </r>
       <r>    5.1749    1.0004 </r>
       <r>    5.8463    0.0610 </r>
       <r>   15.9321    0.0000 </r>
       <r>   21.4679    0.0000 </r>
       <r>   23.3765    0.0000 </r>
      </set>
      <set comment="kpoint 22">
       <r>    2.4568    1.0000 </r>
       <r>    2.6191    1.0000 </r>
       <r>    5.4629    1.0351 </r>
       <r>    5.4715    1.0355 </r>
       <r>    5.7179    0.4978 </r>
       <r>    7.7555    0.0000 </r>
       <r>   16.0302    0.0000 </r>
       <r>   17.4135    0.0000 </r>
       <r>   18.0994    0.0000 </r>
      </set>
      <set comment="kpoint 23">
       <r>    2.5041    1.0000 </r>
       <r>    2.6738    1.0000 </r>
       <r>    5.1615    1.0003 </r>
       <r>    5.4591    1.0348 </r>
       <r>    5.8203    0.1218 </r>
       <r>    9.8281    0.0000 </r>
       <r>   14.2079    0.0000 </r>
       <r>   15.8239    0.0000 </r>
       <r>   17.3769    0.0000 </r>
      </set>
      <set comment="kpoint 24">
       <r>    2.7888    1.0000 </r>
       <r>    3.1386    1.0000 </r>
       <r>    4.3985    1.0000 </r>
       <r>    5.0743    1.0000 </r>
       <r>    5.6595    0.7337 </r>
       <r>   11.4075    0.0000 </r>
       <r>   12.6242    0.0000 </r>
       <r>   14.7581    0.0000 </r>
       <r>   18.6529    0.0000 </r>
      </set>
      <set comment="kpoint 25">
       <r>    2.9337    1.0000 </r>
       <r>    3.4990    1.0000 </r>
       <r>    4.2090    1.0000 </r>
       <r>    4.5169    1.0000 </r>
       <r>    5.5401    1.0090 </r>
       <r>    9.8746    0.0000 </r>
       <r>   11.6399    0.0000 </r>
       <r>   17.8297    0.0000 </r>
       <r>   20.5476    0.0000 </r>
      </set>
      <set comment="kpoint 26">
       <r>    2.4736    1.0000 </r>
       <r>    3.8032    1.0000 </r>
       <r>    4.0819    1.0000 </r>
       <r>    4.9002    1.0000 </r>
       <r>    5.6015    0.9105 </r>
       <r>    7.5811    0.0000 </r>
       <r>   12.0669    0.0000 </r>
       <r>   21.2730    0.0000 </r>
       <r>   22.2779    0.0000 </r>
      </set>
      <set comment="kpoint 27">
       <r>    2.3540    1.0000 </r>
       <r>    2.5246    1.0000 </r>
       <r>    5.6012    0.9113 </r>
       <r>    5.6855    0.6329 </r>
       <r>    5.8325    0.0911 </r>
       <r>    9.0922    0.0000 </r>
       <r>   14.2086    0.0000 </r>
       <r>   16.9014    0.0000 </r>
       <r>   17.5736    0.0000 </r>
      </set>
      <set comment="kpoint 28">
       <r>    2.6066    1.0000 </r>
       <r>    2.7656    1.0000 </r>
       <r>    4.8892    1.0000 </r>
       <r>    5.3873    1.0207 </r>
       <r>    5.7025    0.5627 </r>
       <r>    8.4378    0.0000 </r>
       <r>   15.7731    0.0000 </r>
       <r>   16.5787    0.0000 </r>
       <r>   17.8404    0.0000 </r>
      </set>
      <set comment="kpoint 29">
       <r>    2.8265    1.0000 </r>
       <r>    3.4583    1.0000 </r>
       <r>    4.0701    1.0000 </r>
       <r>    4.6570    1.0000 </r>
       <r>    5.6549    0.7504 </r>
       <r>    8.0943    0.0000 </r>
       <r>   13.7789    0.0000 </r>
       <r>   19.2257    0.0000 </r>
       <r>   19.6507    0.0000 </r>
      </set>
      <set comment="kpoint 30">
       <r>    2.5997    1.0000 </r>
       <r>    2.7979    1.0000 </r>
       <r>    5.0584    1.0000 </r>
       <r>    5.2021    1.0008 </r>
       <r>    5.5640    0.9811 </r>
       <r>    6.3259   -0.0001 </r>
       <r>   18.1802    0.0000 </r>
       <r>   18.6287    0.0000 </r>
       <r>   19.0811    0.0000 </r>
      </set>
      <set comment="kpoint 31">
       <r>    2.7505    1.0000 </r>
       <r>    3.1584    1.0000 </r>
       <r>    4.1541    1.0000 </r>
       <r>    4.7999    1.0000 </r>
       <r>    5.2768    1.0039 </r>
       <r>    5.9689   -0.0353 </r>
       <r>   17.9457    0.0000 </r>
       <r>   19.7635    0.0000 </r>
       <r>   21.2529    0.0000 </r>
      </set>
      <set comment="kpoint 32">
       <r>    2.1417    1.0000 </r>
       <r>    3.3101    1.0000 </r>
       <r>    4.3294    1.0000 </r>
       <r>    4.5283    1.0000 </r>
       <r>    4.7852    1.0000 </r>
       <r>    5.2338    1.0017 </r>
       <r>   20.6924    0.0000 </r>
       <r>   21.9598    0.0000 </r>
       <r>   22.8254    0.0000 </r>
      </set>
      <set comment="kpoint 33">
       <r>    1.4423    1.0000 </r>
       <r>    3.7847    1.0000 </r>
       <r>    4.1066    1.0000 </r>
       <r>    4.1066    1.0000 </r>
       <r>    4.9159    1.0000 </r>
       <r>    4.9159    1.0000 </r>
       <r>   20.1102    0.0000 </r>
       <r>   23.1807    0.0000 </r>
       <r>   25.8119    0.0000 </r>
      </set>
      <set comment="kpoint 34">
       <r>    2.1347    1.0000 </r>
       <r>    3.5972    1.0000 </r>
       <r>    4.1438    1.0000 </r>
       <r>    4.3120    1.0000 </r>
       <r>    4.6644    1.0000 </r>
       <r>    5.4613    1.0350 </r>
       <r>   18.9370    0.0000 </r>
       <r>   20.8043    0.0000 </r>
       <r>   25.0368    0.0000 </r>
      </set>
      <set comment="kpoint 35">
       <r>    2.9197    1.0000 </r>
       <r>    3.6145    1.0000 </r>
       <r>    3.9744    1.0000 </r>
       <r>    4.4366    1.0000 </r>
       <r>    4.8184    1.0000 </r>
       <r>    6.6231    0.0000 </r>
       <r>   16.3892    0.0000 </r>
       <r>   18.3973    0.0000 </r>
       <r>   23.7902    0.0000 </r>
      </set>
      <set comment="kpoint 36">
       <r>    2.8205    1.0000 </r>
       <r>    3.6397    1.0000 </r>
       <r>    4.3348    1.0000 </r>
       <r>    4.3897    1.0000 </r>
       <r>    5.3974    1.0231 </r>
       <r>    8.5990    0.0000 </r>
       <r>   12.4374    0.0000 </r>
       <r>   18.5230    0.0000 </r>
       <r>   22.8105    0.0000 </r>
      </set>
      <set comment="kpoint 37">
       <r>    2.7237    1.0000 </r>
       <r>    3.6043    1.0000 </r>
       <r>    4.3061    1.0000 </r>
       <r>    4.3897    1.0000 </r>
       <r>    5.7095    0.5331 </r>
       <r>    8.5209    0.0000 </r>
       <r>   12.3235    0.0000 </r>
       <r>   19.5772    0.0000 </r>
       <r>   21.3183    0.0000 </r>
      </set>
      <set comment="kpoint 38">
       <r>    2.7065    1.0000 </r>
       <r>    3.4363    1.0000 </r>
       <r>    4.0505    1.0000 </r>
       <r>    4.5291    1.0000 </r>
       <r>    5.5642    0.9808 </r>
       <r>    6.1556   -0.0041 </r>
       <r>   16.2620    0.0000 </r>
       <r>   21.1149    0.0000 </r>
       <r>   21.3080    0.0000 </r>
      </set>
      <set comment="kpoint 39">
       <r>    2.3778    1.0000 </r>
       <r>    3.6197    1.0000 </r>
       <r>    4.0570    1.0000 </r>
       <r>    4.3151    1.0000 </r>
       <r>    5.2992    1.0059 </r>
       <r>    5.3557    1.0141 </r>
       <r>   17.4414    0.0000 </r>
       <r>   22.5908    0.0000 </r>
       <r>   22.6145    0.0000 </r>
      </set>
      <set comment="kpoint 40">
       <r>    2.9792    1.0000 </r>
       <r>    3.4120    1.0000 </r>
       <r>    3.8164    1.0000 </r>
       <r>    4.7338    1.0000 </r>
       <r>    5.1244    1.0001 </r>
       <r>    6.7015    0.0000 </r>
       <r>   16.5276    0.0000 </r>
       <r>   18.5206    0.0000 </r>
       <r>   21.5647    0.0000 </r>
      </set>
      <set comment="kpoint 41">
       <r>    3.2680    1.0000 </r>
       <r>    3.4283    1.0000 </r>
       <r>    3.6749    1.0000 </r>
       <r>    4.8266    1.0000 </r>
       <r>    5.3601    1.0150 </r>
       <r>    8.8020    0.0000 </r>
       <r>   14.3599    0.0000 </r>
       <r>   16.4500    0.0000 </r>
       <r>   19.6850    0.0000 </r>
      </set>
      <set comment="kpoint 42">
       <r>    3.0815    1.0000 </r>
       <r>    3.3503    1.0000 </r>
       <r>    3.9733    1.0000 </r>
       <r>    4.7580    1.0000 </r>
       <r>    5.6212    0.8593 </r>
       <r>   10.6064    0.0000 </r>
       <r>   11.9019    0.0000 </r>
       <r>   17.2901    0.0000 </r>
       <r>   18.3053    0.0000 </r>
      </set>
      <set comment="kpoint 43">
       <r>    2.9939    1.0000 </r>
       <r>    3.2224    1.0000 </r>
       <r>    3.9586    1.0000 </r>
       <r>    5.0195    1.0000 </r>
       <r>    5.4192    1.0281 </r>
       <r>    7.8604    0.0000 </r>
       <r>   15.5459    0.0000 </r>
       <r>   17.5341    0.0000 </r>
       <r>   19.1352    0.0000 </r>
      </set>
      <set comment="kpoint 44">
       <r>    2.7460    1.0000 </r>
       <r>    3.1785    1.0000 </r>
       <r>    4.3382    1.0000 </r>
       <r>    4.7962    1.0000 </r>
       <r>    5.7071    0.5434 </r>
       <r>    7.4077    0.0000 </r>
       <r>   15.2270    0.0000 </r>
       <r>   18.9096    0.0000 </r>
       <r>   19.8904    0.0000 </r>
      </set>
      <set comment="kpoint 45">
       <r>    2.8681    1.0000 </r>
       <r>    3.0399    1.0000 </r>
       <r>    4.2616    1.0000 </r>
       <r>    5.1816    1.0005 </r>
       <r>    5.6559    0.7469 </r>
       <r>    9.3675    0.0000 </r>
       <r>   14.7668    0.0000 </r>
       <r>   16.4132    0.0000 </r>
       <r>   17.1930    0.0000 </r>
      </set>
      <set comment="kpoint 46">
       <r>    3.0165    1.0000 </r>
       <r>    3.3454    1.0000 </r>
       <r>    3.8692    1.0000 </r>
       <r>    4.9486    1.0000 </r>
       <r>    5.8147    0.1373 </r>
       <r>   12.0912    0.0000 </r>
       <r>   13.2377    0.0000 </r>
       <r>   14.7148    0.0000 </r>
       <r>   16.0180    0.0000 </r>
      </set>
      <set comment="kpoint 47">
       <r>    3.1514    1.0000 </r>
       <r>    3.3517    1.0000 </r>
       <r>    3.7599    1.0000 </r>
       <r>    4.9394    1.0000 </r>
       <r>    5.6356    0.8159 </r>
       <r>   10.3777    0.0000 </r>
       <r>   13.6492    0.0000 </r>
       <r>   15.7730    0.0000 </r>
       <r>   17.3707    0.0000 </r>
      </set>
      <set comment="kpoint 48">
       <r>    2.5893    1.0000 </r>
       <r>    2.8570    1.0000 </r>
       <r>    4.9004    1.0000 </r>
       <r>    5.2891    1.0049 </r>
       <r>    5.7250    0.4678 </r>
       <r>   10.4410    0.0000 </r>
       <r>   13.8049    0.0000 </r>
       <r>   14.7558    0.0000 </r>
       <r>   18.5720    0.0000 </r>
      </set>
      <set comment="kpoint 49">
       <r>    2.7635    1.0000 </r>
       <r>    2.9572    1.0000 </r>
       <r>    4.4939    1.0000 </r>
       <r>    5.1917    1.0006 </r>
       <r>    5.8160    0.1336 </r>
       <r>   10.9073    0.0000 </r>
       <r>   14.0613    0.0000 </r>
       <r>   14.9007    0.0000 </r>
       <r>   16.6456    0.0000 </r>
      </set>
      <set comment="kpoint 50">
       <r>    2.6626    1.0000 </r>
       <r>    2.9653    1.0000 </r>
       <r>    4.6836    1.0000 </r>
       <r>    5.0748    1.0000 </r>
       <r>    5.7558    0.3408 </r>
       <r>    8.9475    0.0000 </r>
       <r>   14.4083    0.0000 </r>
       <r>   16.5279    0.0000 </r>
       <r>   19.0227    0.0000 </r>
      </set>
      <set comment="kpoint 51">
       <r>    2.2310    1.0000 </r>
       <r>    4.0564    1.0000 </r>
       <r>    4.0564    1.0000 </r>
       <r>    4.5219    1.0000 </r>
       <r>    5.2435    1.0020 </r>
       <r>    5.2435    1.0020 </r>
       <r>   15.7315    0.0000 </r>
       <r>   22.5300    0.0000 </r>
       <r>   25.1385    0.0000 </r>
      </set>
      <set comment="kpoint 52">
       <r>    2.5892    1.0000 </r>
       <r>    3.8778    1.0000 </r>
       <r>    4.1831    1.0000 </r>
       <r>    4.3733    1.0000 </r>
       <r>    5.1350    1.0002 </r>
       <r>    6.5462    0.0000 </r>
       <r>   14.6163    0.0000 </r>
       <r>   20.3888    0.0000 </r>
       <r>   23.3148    0.0000 </r>
      </set>
      <set comment="kpoint 53">
       <r>    3.1411    1.0000 </r>
       <r>    3.6174    1.0000 </r>
       <r>    3.9080    1.0000 </r>
       <r>    4.5803    1.0000 </r>
       <r>    5.1598    1.0003 </r>
       <r>    8.5741    0.0000 </r>
       <r>   14.2096    0.0000 </r>
       <r>   16.3188    0.0000 </r>
       <r>   22.6770    0.0000 </r>
      </set>
      <set comment="kpoint 54">
       <r>    2.9024    1.0000 </r>
       <r>    3.3894    1.0000 </r>
       <r>    4.1740    1.0000 </r>
       <r>    4.8885    1.0000 </r>
       <r>    5.4864    1.0346 </r>
       <r>   11.1215    0.0000 </r>
       <r>   12.2670    0.0000 </r>
       <r>   15.0385    0.0000 </r>
       <r>   20.3542    0.0000 </r>
      </set>
      <set comment="kpoint 55">
       <r>    2.5358    1.0000 </r>
       <r>    3.8053    1.0000 </r>
       <r>    4.1839    1.0000 </r>
       <r>    4.4775    1.0000 </r>
       <r>    5.6660    0.7097 </r>
       <r>    6.9993    0.0000 </r>
       <r>   13.2572    0.0000 </r>
       <r>   21.5406    0.0000 </r>
       <r>   22.2916    0.0000 </r>
      </set>
      <set comment="kpoint 56">
       <r>    2.9328    1.0000 </r>
       <r>    3.5092    1.0000 </r>
       <r>    4.1019    1.0000 </r>
       <r>    4.5527    1.0000 </r>
       <r>    5.5483    1.0007 </r>
       <r>    8.9388    0.0000 </r>
       <r>   12.5689    0.0000 </r>
       <r>   18.6727    0.0000 </r>
       <r>   19.8226    0.0000 </r>
      </set>
      <set comment="kpoint 57">
       <r>    3.0761    1.0000 </r>
       <r>    3.3800    1.0000 </r>
       <r>    3.8830    1.0000 </r>
       <r>    4.8894    1.0000 </r>
       <r>    5.6352    0.8172 </r>
       <r>   11.4471    0.0000 </r>
       <r>   12.5240    0.0000 </r>
       <r>   15.1276    0.0000 </r>
       <r>   18.0094    0.0000 </r>
      </set>
      <set comment="kpoint 58">
       <r>    2.8598    1.0000 </r>
       <r>    3.4453    1.0000 </r>
       <r>    4.2108    1.0000 </r>
       <r>    4.6513    1.0000 </r>
       <r>    5.6293    0.8355 </r>
       <r>   10.2431    0.0000 </r>
       <r>   11.6747    0.0000 </r>
       <r>   17.2138    0.0000 </r>
       <r>   20.6732    0.0000 </r>
      </set>
      <set comment="kpoint 59">
       <r>    2.2759    1.0000 </r>
       <r>    3.9253    1.0000 </r>
       <r>    3.9253    1.0000 </r>
       <r>    5.6188    0.8660 </r>
       <r>    5.6188    0.8660 </r>
       <r>    6.6667    0.0000 </r>
       <r>   11.9375    0.0000 </r>
       <r>   21.8073    0.0000 </r>
       <r>   24.0976    0.0000 </r>
      </set>
      <set comment="kpoint 60">
       <r>    2.5220    1.0000 </r>
       <r>    3.7511    1.0000 </r>
       <r>    4.1060    1.0000 </r>
       <r>    4.9026    1.0000 </r>
       <r>    5.5989    0.9164 </r>
       <r>    8.3879    0.0000 </r>
       <r>   11.3023    0.0000 </r>
       <r>   20.6247    0.0000 </r>
       <r>   22.6290    0.0000 </r>
      </set>
     </set>
    </set>
   </array>
  </eigenvalues>
  <separator name="orbital magnetization" >
   <v name="MAGDIPOLOUT">      0.00000000      0.00000000      0.00000000</v>
  </separator>
  <dos>
   <i name="efermi">      5.71735542 </i>
   <total>
    <array>
     <dimension dim="1">gridpoints</dimension>
     <dimension dim="2">spin</dimension>
     <field>energy</field>
     <field>total</field>
     <field>integrated</field>
     <set>
      <set comment="spin 1">
       <r>    -1.3640     0.0000     0.0000 </r>
       <r>    -1.2668     0.0000     0.0000 </r>
       <r>    -1.1695     0.0000     0.0000 </r>
       <r>    -1.0723     0.0000     0.0000 </r>
       <r>    -0.9750     0.0000     0.0000 </r>
       <r>    -0.8778     0.0000     0.0000 </r>
       <r>    -0.7805     0.0000     0.0000 </r>
       <r>    -0.6833     0.0000     0.0000 </r>
       <r>    -0.5860     0.0000     0.0000 </r>
       <r>    -0.4887     0.0000     0.0000 </r>
       <r>    -0.3915     0.0000     0.0000 </r>
       <r>    -0.2942     0.0000     0.0000 </r>
       <r>    -0.1970     0.0000     0.0000 </r>
       <r>    -0.0997     0.0000     0.0000 </r>
       <r>    -0.0025     0.0000     0.0000 </r>
       <r>     0.0948     0.0000     0.0000 </r>
       <r>     0.1920    -0.0003     0.0000 </r>
       <r>     0.2893    -0.0011    -0.0001 </r>
       <r>     0.3865    -0.0016    -0.0003 </r>
       <r>     0.4838     0.0037     0.0001 </r>
       <r>     0.5810     0.0173     0.0018 </r>
       <r>     0.6783     0.0274     0.0044 </r>
       <r>     0.7755     0.0356     0.0079 </r>
       <r>     0.8728     0.0646     0.0142 </r>
       <r>     0.9701     0.0911     0.0230 </r>
       <r>     1.0673     0.0855     0.0313 </r>
       <r>     1.1646     0.0831     0.0394 </r>
       <r>     1.2618     0.0909     0.0483 </r>
       <r>     1.3591     0.0943     0.0574 </r>
       <r>     1.4563     0.1123     0.0684 </r>
       <r>     1.5536     0.1353     0.0815 </r>
       <r>     1.6508     0.1707     0.0981 </r>
       <r>     1.7481     0.2127     0.1188 </r>
       <r>     1.8453     0.1904     0.1373 </r>
       <r>     1.9426     0.1179     0.1488 </r>
       <r>     2.0398     0.1126     0.1598 </r>
       <r>     2.1371     0.2343     0.1825 </r>
       <r>     2.2343     0.4531     0.2266 </r>
       <r>     2.3316     0.7791     0.3024 </r>
       <r>     2.4288     1.1973     0.4188 </r>
       <r>     2.5261     1.6672     0.5809 </r>
       <r>     2.6234     2.2529     0.8000 </r>
       <r>     2.7206     2.8744     1.0796 </r>
       <r>     2.8179     3.1719     1.3881 </r>
       <r>     2.9151     3.0472     1.6844 </r>
       <r>     3.0124     2.8147     1.9581 </r>
       <r>     3.1096     2.5822     2.2093 </r>
       <r>     3.2069     2.2675     2.4298 </r>
       <r>     3.3041     2.0995     2.6340 </r>
       <r>     3.4014     2.2892     2.8566 </r>
       <r>     3.4986     2.5149     3.1012 </r>
       <r>     3.5959     2.5259     3.3469 </r>
       <r>     3.6931     2.5155     3.5915 </r>
       <r>     3.7904     2.6946     3.8536 </r>
       <r>     3.8876     3.0731     4.1524 </r>
       <r>     3.9849     3.5492     4.4976 </r>
       <r>     4.0821     3.9951     4.8861 </r>
       <r>     4.1794     4.1578     5.2905 </r>
       <r>     4.2767     3.7760     5.6577 </r>
       <r>     4.3739     3.1293     5.9620 </r>
       <r>     4.4712     2.7661     6.2311 </r>
       <r>     4.5684     2.6168     6.4856 </r>
       <r>     4.6657     2.5062     6.7293 </r>
       <r>     4.7629     2.7400     6.9958 </r>
       <r>     4.8602     3.2131     7.3082 </r>
       <r>     4.9574     3.2946     7.6287 </r>
       <r>     5.0547     2.9943     7.9199 </r>
       <r>     5.1519     2.7914     8.1913 </r>
       <r>     5.2492     2.6621     8.4502 </r>
       <r>     5.3464     2.6587     8.7088 </r>
       <r>     5.4437     2.9868     8.9993 </r>
       <r>     5.5409     3.4824     9.3379 </r>
       <r>     5.6382     3.8477     9.7121 </r>
       <r>     5.7354     3.5583    10.0582 </r>
       <r>     5.8327     2.5017    10.3015 </r>
       <r>     5.9300     1.3486    10.4326 </r>
       <r>     6.0272     0.5774    10.4888 </r>
       <r>     6.1245     0.1966    10.5079 </r>
       <r>     6.2217     0.0908    10.5167 </r>
       <r>     6.3190     0.1193    10.5283 </r>
       <r>     6.4162     0.1712    10.5450 </r>
       <r>     6.5135     0.2338    10.5677 </r>
       <r>     6.6107     0.3595    10.6027 </r>
       <r>     6.7080     0.4815    10.6495 </r>
       <r>     6.8052     0.4360    10.6919 </r>
       <r>     6.9025     0.3043    10.7215 </r>
       <r>     6.9997     0.2734    10.7481 </r>
       <r>     7.0970     0.2358    10.7710 </r>
       <r>     7.1942     0.0932    10.7801 </r>
       <r>     7.2915     0.0008    10.7802 </r>
       <r>     7.3887     0.1037    10.7903 </r>
       <r>     7.4860     0.4080    10.8299 </r>
       <r>     7.5833     0.6809    10.8961 </r>
       <r>     7.6805     0.6270    10.9571 </r>
       <r>     7.7778     0.3877    10.9948 </r>
       <r>     7.8750     0.2521    11.0193 </r>
       <r>     7.9723     0.2092    11.0397 </r>
       <r>     8.0695     0.1934    11.0585 </r>
       <r>     8.1668     0.1626    11.0743 </r>
       <r>     8.2640     0.1191    11.0859 </r>
       <r>     8.3613     0.1924    11.1046 </r>
       <r>     8.4585     0.3666    11.1403 </r>
       <r>     8.5558     0.4320    11.1823 </r>
       <r>     8.6530     0.3291    11.2143 </r>
       <r>     8.7503     0.2524    11.2388 </r>
       <r>     8.8475     0.3709    11.2749 </r>
       <r>     8.9448     0.5550    11.3289 </r>
       <r>     9.0420     0.5272    11.3801 </r>
       <r>     9.1393     0.2885    11.4082 </r>
       <r>     9.2366     0.1180    11.4197 </r>
       <r>     9.3338     0.1322    11.4325 </r>
       <r>     9.4311     0.1598    11.4481 </r>
       <r>     9.5283     0.0846    11.4563 </r>
       <r>     9.6256     0.0667    11.4628 </r>
       <r>     9.7228     0.2835    11.4904 </r>
       <r>     9.8201     0.6009    11.5488 </r>
       <r>     9.9173     0.6487    11.6119 </r>
       <r>    10.0146     0.3506    11.6460 </r>
       <r>    10.1118     0.0714    11.6529 </r>
       <r>    10.2091     0.0521    11.6580 </r>
       <r>    10.3063     0.1923    11.6767 </r>
       <r>    10.4036     0.3119    11.7070 </r>
       <r>    10.5008     0.3243    11.7386 </r>
       <r>    10.5981     0.2649    11.7643 </r>
       <r>    10.6953     0.1809    11.7819 </r>
       <r>    10.7926     0.1262    11.7942 </r>
       <r>    10.8899     0.1531    11.8091 </r>
       <r>    10.9871     0.1782    11.8264 </r>
       <r>    11.0844     0.1538    11.8414 </r>
       <r>    11.1816     0.1890    11.8598 </r>
       <r>    11.2789     0.3634    11.8951 </r>
       <r>    11.3761     0.5839    11.9519 </r>
       <r>    11.4734     0.6236    12.0125 </r>
       <r>    11.5706     0.4666    12.0579 </r>
       <r>    11.6679     0.3214    12.0892 </r>
       <r>    11.7651     0.2381    12.1123 </r>
       <r>    11.8624     0.2217    12.1339 </r>
       <r>    11.9596     0.3186    12.1649 </r>
       <r>    12.0569     0.4361    12.2073 </r>
       <r>    12.1541     0.4258    12.2487 </r>
       <r>    12.2514     0.3063    12.2785 </r>
       <r>    12.3487     0.2487    12.3027 </r>
       <r>    12.4459     0.3526    12.3370 </r>
       <r>    12.5432     0.5377    12.3893 </r>
       <r>    12.6404     0.5524    12.4430 </r>
       <r>    12.7377     0.3054    12.4727 </r>
       <r>    12.8349     0.0579    12.4783 </r>
       <r>    12.9322     0.0357    12.4818 </r>
       <r>    13.0294     0.1901    12.5003 </r>
       <r>    13.1267     0.3782    12.5371 </r>
       <r>    13.2239     0.5172    12.5874 </r>
       <r>    13.3212     0.5091    12.6369 </r>
       <r>    13.4184     0.3558    12.6715 </r>
       <r>    13.5157     0.2572    12.6965 </r>
       <r>    13.6129     0.2925    12.7249 </r>
       <r>    13.7102     0.3701    12.7609 </r>
       <r>    13.8074     0.3711    12.7970 </r>
       <r>    13.9047     0.2552    12.8218 </r>
       <r>    14.0020     0.1822    12.8395 </r>
       <r>    14.0992     0.2910    12.8678 </r>
       <r>    14.1965     0.4751    12.9141 </r>
       <r>    14.2937     0.5648    12.9690 </r>
       <r>    14.3910     0.4990    13.0175 </r>
       <r>    14.4882     0.3212    13.0488 </r>
       <r>    14.5855     0.2664    13.0747 </r>
       <r>    14.6827     0.5641    13.1295 </r>
       <r>    14.7800     0.9126    13.2183 </r>
       <r>    14.8772     0.8296    13.2990 </r>
       <r>    14.9745     0.4781    13.3455 </r>
       <r>    15.0717     0.3082    13.3754 </r>
       <r>    15.1690     0.3509    13.4096 </r>
       <r>    15.2662     0.3733    13.4459 </r>
       <r>    15.3635     0.2789    13.4730 </r>
       <r>    15.4607     0.2153    13.4939 </r>
       <r>    15.5580     0.3091    13.5240 </r>
       <r>    15.6553     0.4676    13.5695 </r>
       <r>    15.7525     0.6209    13.6298 </r>
       <r>    15.8498     0.7184    13.6997 </r>
       <r>    15.9470     0.6691    13.7648 </r>
       <r>    16.0443     0.4914    13.8126 </r>
       <r>    16.1415     0.2705    13.8389 </r>
       <r>    16.2388     0.1875    13.8571 </r>
       <r>    16.3360     0.3774    13.8938 </r>
       <r>    16.4333     0.7020    13.9621 </r>
       <r>    16.5305     0.8782    14.0475 </r>
       <r>    16.6278     0.7655    14.1219 </r>
       <r>    16.7250     0.5400    14.1745 </r>
       <r>    16.8223     0.4563    14.2188 </r>
       <r>    16.9195     0.4097    14.2587 </r>
       <r>    17.0168     0.2342    14.2815 </r>
       <r>    17.1140     0.1869    14.2996 </r>
       <r>    17.2113     0.5077    14.3490 </r>
       <r>    17.3086     0.9446    14.4409 </r>
       <r>    17.4058     1.0743    14.5454 </r>
       <r>    17.5031     0.8440    14.6274 </r>
       <r>    17.6003     0.5514    14.6811 </r>
       <r>    17.6976     0.4114    14.7211 </r>
       <r>    17.7948     0.4540    14.7652 </r>
       <r>    17.8921     0.5780    14.8214 </r>
       <r>    17.9893     0.5995    14.8797 </r>
       <r>    18.0866     0.4723    14.9257 </r>
       <r>    18.1838     0.3250    14.9573 </r>
       <r>    18.2811     0.2687    14.9834 </r>
       <r>    18.3783     0.3254    15.0150 </r>
       <r>    18.4756     0.5376    15.0673 </r>
       <r>    18.5728     0.8408    15.1491 </r>
       <r>    18.6701     0.9320    15.2397 </r>
       <r>    18.7673     0.7220    15.3100 </r>
       <r>    18.8646     0.5417    15.3626 </r>
       <r>    18.9619     0.6062    15.4216 </r>
       <r>    19.0591     0.7636    15.4959 </r>
       <r>    19.1564     0.7726    15.5710 </r>
       <r>    19.2536     0.5567    15.6251 </r>
       <r>    19.3509     0.3210    15.6564 </r>
       <r>    19.4481     0.2994    15.6855 </r>
       <r>    19.5454     0.4821    15.7324 </r>
       <r>    19.6426     0.7344    15.8038 </r>
       <r>    19.7399     0.8498    15.8864 </r>
       <r>    19.8371     0.6899    15.9535 </r>
       <r>    19.9344     0.3862    15.9911 </r>
       <r>    20.0316     0.1858    16.0091 </r>
       <r>    20.1289     0.1726    16.0259 </r>
       <r>    20.2261     0.2875    16.0539 </r>
       <r>    20.3234     0.5282    16.1053 </r>
       <r>    20.4206     0.7638    16.1795 </r>
       <r>    20.5179     0.7892    16.2563 </r>
       <r>    20.6152     0.6486    16.3194 </r>
       <r>    20.7124     0.4708    16.3652 </r>
       <r>    20.8097     0.3654    16.4007 </r>
       <r>    20.9069     0.3920    16.4388 </r>
       <r>    21.0042     0.4278    16.4804 </r>
       <r>    21.1014     0.4094    16.5202 </r>
       <r>    21.1987     0.4741    16.5664 </r>
       <r>    21.2959     0.5903    16.6238 </r>
       <r>    21.3932     0.6082    16.6829 </r>
       <r>    21.4904     0.6480    16.7459 </r>
       <r>    21.5877     0.7437    16.8183 </r>
       <r>    21.6849     0.6539    16.8819 </r>
       <r>    21.7822     0.4142    16.9221 </r>
       <r>    21.8794     0.3012    16.9514 </r>
       <r>    21.9767     0.4157    16.9919 </r>
       <r>    22.0739     0.6096    17.0511 </r>
       <r>    22.1712     0.6746    17.1168 </r>
       <r>    22.2685     0.6167    17.1767 </r>
       <r>    22.3657     0.5077    17.2261 </r>
       <r>    22.4630     0.3683    17.2619 </r>
       <r>    22.5602     0.3284    17.2939 </r>
       <r>    22.6575     0.4058    17.3333 </r>
       <r>    22.7547     0.4486    17.3769 </r>
       <r>    22.8520     0.4113    17.4169 </r>
       <r>    22.9492     0.3203    17.4481 </r>
       <r>    23.0465     0.2070    17.4682 </r>
       <r>    23.1437     0.1350    17.4813 </r>
       <r>    23.2410     0.2019    17.5010 </r>
       <r>    23.3382     0.4220    17.5420 </r>
       <r>    23.4355     0.6069    17.6010 </r>
       <r>    23.5327     0.6064    17.6600 </r>
       <r>    23.6300     0.4850    17.7072 </r>
       <r>    23.7273     0.3806    17.7442 </r>
       <r>    23.8245     0.3157    17.7749 </r>
       <r>    23.9218     0.1964    17.7940 </r>
       <r>    24.0190     0.0619    17.8000 </r>
       <r>    24.1163     0.0267    17.8026 </r>
       <r>    24.2135     0.0784    17.8102 </r>
       <r>    24.3108     0.1404    17.8239 </r>
       <r>    24.4080     0.1691    17.8403 </r>
       <r>    24.5053     0.1923    17.8590 </r>
       <r>    24.6025     0.2185    17.8803 </r>
       <r>    24.6998     0.1800    17.8978 </r>
       <r>    24.7970     0.1242    17.9099 </r>
       <r>    24.8943     0.1711    17.9265 </r>
       <r>    24.9915     0.2488    17.9507 </r>
       <r>    25.0888     0.2195    17.9721 </r>
       <r>    25.1860     0.1121    17.9830 </r>
       <r>    25.2833     0.0261    17.9855 </r>
       <r>    25.3806    -0.0063    17.9849 </r>
       <r>    25.4778    -0.0044    17.9845 </r>
       <r>    25.5751     0.0143    17.9859 </r>
       <r>    25.6723     0.0371    17.9895 </r>
       <r>    25.7696     0.0483    17.9942 </r>
       <r>    25.8668     0.0404    17.9981 </r>
       <r>    25.9641     0.0198    18.0000 </r>
       <r>    26.0613     0.0031    18.0003 </r>
       <r>    26.1586    -0.0019    18.0001 </r>
       <r>    26.2558    -0.0011    18.0000 </r>
       <r>    26.3531    -0.0003    18.0000 </r>
       <r>    26.4503     0.0000    18.0000 </r>
       <r>    26.5476     0.0000    18.0000 </r>
       <r>    26.6448     0.0000    18.0000 </r>
       <r>    26.7421     0.0000    18.0000 </r>
       <r>    26.8393     0.0000    18.0000 </r>
       <r>    26.9366     0.0000    18.0000 </r>
       <r>    27.0339     0.0000    18.0000 </r>
       <r>    27.1311     0.0000    18.0000 </r>
       <r>    27.2284     0.0000    18.0000 </r>
       <r>    27.3256     0.0000    18.0000 </r>
       <r>    27.4229     0.0000    18.0000 </r>
       <r>    27.5201     0.0000    18.0000 </r>
       <r>    27.6174     0.0000    18.0000 </r>
       <r>    27.7146     0.0000    18.0000 </r>
       <r>    27.8119     0.0000    18.0000 </r>
      </set>
     </set>
    </array>
   </total>
  </dos>
 </calculation>
 <structure name="finalpos" >
  <crystal>
   <varray name="basis" >
    <v>       3.02570992       0.00000000       0.00000000 </v>
    <v>       1.51285496       2.62034165       0.00000000 </v>
    <v>       1.51285496       0.87344722       2.47048180 </v>
   </varray>
   <i name="volume">     19.58695241 </i>
   <varray name="rec_basis" >
    <v>       0.33050095      -0.19081481      -0.13492645 </v>
    <v>       0.00000000       0.38162962      -0.13492645 </v>
    <v>       0.00000000       0.00000000       0.40477934 </v>
   </varray>
  </crystal>
  <varray name="positions" >
   <v>       0.00000000       0.00000000       0.00000000 </v>
  </varray>
 </structure>
</modeling>
