 vasp.5.3.5 31Mar14 (build Jan 09 2015 16:57:47) complex                        
  
 POSCAR found :  1 types and       1 ions
 LDA part: xc-table for Pade appr. of Perdew
 POSCAR found :  1 types and       1 ions
 POSCAR, INCAR and KPOINTS ok, starting setup
 WARNING: small aliasing (wrap around) errors must be expected
 FFT: planning ...
 WAVECAR not read
 entering main loop
       N       E                     dE             d eps       ncg     rms          rms(c)
DAV:   1     0.268403651419E+02    0.26840E+02   -0.39780E+03  1120   0.703E+02
DAV:   2    -0.467694909190E+01   -0.31517E+02   -0.30053E+02  1144   0.151E+02
DAV:   3    -0.502457183724E+01   -0.34762E+00   -0.34208E+00  1302   0.172E+01
DAV:   4    -0.502610021018E+01   -0.15284E-02   -0.15281E-02  1218   0.114E+00
DAV:   5    -0.502612175699E+01   -0.21547E-04   -0.21546E-04  1283   0.122E-01    0.357E+00
DAV:   6    -0.485854673371E+01    0.16758E+00   -0.12259E+00  1109   0.931E+00    0.181E+00
DAV:   7    -0.485604393112E+01    0.25028E-02   -0.12013E-02  1107   0.104E+00    0.102E+00
DAV:   8    -0.485547358059E+01    0.57035E-03   -0.61305E-04  1152   0.225E-01    0.369E-02
DAV:   9    -0.485549032795E+01   -0.16747E-04   -0.96053E-06   590   0.316E-02
   1 F= -.48554903E+01 E0= -.48528475E+01  d E =-.485549E+01
 curvature:   0.00 expect dE= 0.000E+00 dE for cont linesearch  0.000E+00
 trial: gam= 0.00000 g(F)=  0.528E-62 g(S)=  0.000E+00 ort = 0.000E+00 (trialstep = 0.100E+01)
 search vector abs. value=  0.100E-09
 reached required accuracy - stopping structural energy minimisation
 writing wavefunctions
