unknown system                          
           1
     3.025710    0.000000    0.000000
     1.512855    2.620342    0.000000
     1.512855    0.873447    2.470482
   Pd
   1
Direct configuration=     1
   0.00000000  0.00000000  0.00000000
