unknown system                          
   1.00000000000000     
     2.970697    0.000000    0.000000
     1.485349    2.572699    0.000000
     1.485349    0.857566    2.425564
   Pd
     1
Direct
  0.000000  0.000000  0.000000
 
   28   28   28
  117.44      113.25      101.93      86.482      69.906      54.058      39.754      27.524      17.988      11.521    
  7.7725      5.6637      4.4015      3.7683      3.5810      3.7683      4.4015      5.6637      7.7725      11.521    
  17.988      27.524      39.754      54.058      69.906      86.482      101.93      113.25      113.25      105.50    
  92.220      76.431      60.515      45.710      32.637      21.907      14.085      9.2088      6.5081      4.8887    
  3.9850      3.5992      3.6005      3.9863      4.8874      6.5068      9.2102      14.086      21.906      32.636    
  45.711      60.516      76.430      92.219      105.51      113.25      101.93      92.218      78.784      64.072    
  49.695      36.526      25.248      16.535      10.708      7.3488      5.4034      4.2386      3.6548      3.4813    
  3.6548      4.2386      5.4034      7.3488      10.708      16.535      25.248      36.526      49.695      64.072    
  78.784      92.218      101.93      105.51      86.483      76.430      64.071      51.100      38.630      27.491    
  18.456      12.044      8.1351      5.8930      4.4991      3.7332      3.4072      3.4065      3.7325      4.4998    
  5.8936      8.1342      12.043      18.457      27.492      38.629      51.099      64.072      76.431      86.482    
  92.219      92.220      69.908      60.516      49.694      38.630      28.281      19.512      12.968      8.7587    
  6.2974      4.7381      3.8179      3.3620      3.2275      3.3620      3.8179      4.7381      6.2974      8.7587    
  12.968      19.512      28.281      38.630      49.694      60.516      69.908      76.430      78.783      76.430    
  54.058      45.710      36.526      27.491      19.512      13.300      9.1070      6.5628      4.9204      3.8942    
  3.3362      3.0992      3.0992      3.3363      3.8941      4.9204      6.5631      9.1070      13.299      19.512    
  27.491      36.526      45.710      54.058      60.516      64.072      64.071      60.515      39.753      32.636    
  25.248      18.457      12.969      9.1069      6.6562      5.0194      3.9464      3.3219      3.0109      2.9185    
  3.0109      3.3219      3.9464      5.0194      6.6562      9.1070      12.969      18.457      25.248      32.636    
  39.753      45.710      49.695      51.099      49.695      45.710      27.525      21.906      16.534      12.044    
  8.7588      6.5628      5.0192      3.9653      3.3157      2.9577      2.8026      2.8028      2.9580      3.3154    
  3.9649      5.0194      6.5631      8.7586      12.043      16.535      21.906      27.524      32.636      36.527    
  38.630      38.629      36.526      32.637      17.989      14.086      10.708      8.1347      6.2972      4.9203    
  3.9463      3.3155      2.9402      2.7455      2.6856      2.7455      2.9402      3.3155      3.9463      4.9203    
  6.2973      8.1347      10.708      14.086      17.989      21.906      25.248      27.491      28.281      27.491    
  25.248      21.906      11.521      9.2096      7.3495      5.8932      4.7382      3.8942      3.3218      2.9577    
  2.7456      2.6480      2.6478      2.7453      2.9580      3.3221      3.8941      4.7379      5.8933      7.3497    
  9.2095      11.521      14.086      16.534      18.456      19.512      19.512      18.457      16.534      14.085    
  7.7716      6.5075      5.4034      4.4994      3.8182      3.3364      3.0109      2.8026      2.6858      2.6480    
  2.6858      2.8026      3.0109      3.3364      3.8182      4.4994      5.4035      6.5075      7.7716      9.2095    
  10.708      12.044      12.969      13.299      12.969      12.044      10.708      9.2095      5.6636      4.8880    
  4.2378      3.7328      3.3620      3.0992      2.9184      2.8027      2.7454      2.7454      2.8027      2.9183    
  3.0992      3.3621      3.7329      4.2379      4.8880      5.6636      6.5074      7.3495      8.1347      8.7588    
  9.1070      9.1070      8.7586      8.1346      7.3496      6.5075      4.4024      3.9857      3.6548      3.4068    
  3.2272      3.0992      3.0109      2.9579      2.9400      2.9579      3.0109      3.0992      3.2272      3.4068    
  3.6548      3.9857      4.4025      4.8880      5.4034      5.8932      6.2971      6.5630      6.6562      6.5630    
  6.2971      5.8932      5.4034      4.8880      3.7683      3.5999      3.4820      3.4069      3.3621      3.3362    
  3.3219      3.3155      3.3155      3.3221      3.3363      3.3620      3.4069      3.4820      3.5998      3.7683    
  3.9857      4.2379      4.4994      4.7380      4.9204      5.0193      5.0194      4.9205      4.7381      4.4994    
  4.2378      3.9857      3.5800      3.5998      3.6548      3.7329      3.8182      3.8942      3.9464      3.9650    
  3.9464      3.8942      3.8182      3.7329      3.6548      3.5998      3.5800      3.5998      3.6548      3.7329    
  3.8182      3.8942      3.9464      3.9650      3.9464      3.8942      3.8182      3.7329      3.6548      3.5998    
  3.7683      3.9857      4.2378      4.4994      4.7381      4.9205      5.0194      5.0193      4.9204      4.7380    
  4.4994      4.2379      3.9857      3.7683      3.5998      3.4820      3.4069      3.3620      3.3363      3.3221    
  3.3155      3.3155      3.3219      3.3362      3.3621      3.4069      3.4820      3.5999      4.4024      4.8880    
  5.4034      5.8932      6.2971      6.5630      6.6562      6.5630      6.2971      5.8932      5.4034      4.8880    
  4.4025      3.9857      3.6548      3.4068      3.2272      3.0992      3.0109      2.9579      2.9400      2.9579    
  3.0109      3.0992      3.2272      3.4068      3.6548      3.9857      5.6636      6.5075      7.3496      8.1346    
  8.7586      9.1070      9.1070      8.7588      8.1347      7.3495      6.5074      5.6636      4.8880      4.2379    
  3.7329      3.3621      3.0992      2.9183      2.8027      2.7454      2.7454      2.8027      2.9184      3.0992    
  3.3620      3.7328      4.2378      4.8880      7.7716      9.2095      10.708      12.044      12.969      13.299    
  12.969      12.044      10.708      9.2095      7.7716      6.5075      5.4035      4.4994      3.8182      3.3364    
  3.0109      2.8026      2.6858      2.6480      2.6858      2.8026      3.0109      3.3364      3.8182      4.4994    
  5.4034      6.5075      11.521      14.085      16.534      18.457      19.512      19.512      18.456      16.534    
  14.086      11.521      9.2095      7.3497      5.8933      4.7379      3.8941      3.3221      2.9580      2.7453    
  2.6478      2.6480      2.7456      2.9577      3.3218      3.8942      4.7382      5.8932      7.3495      9.2096    
  17.989      21.906      25.248      27.491      28.281      27.491      25.248      21.906      17.989      14.086    
  10.708      8.1347      6.2973      4.9203      3.9463      3.3155      2.9402      2.7455      2.6856      2.7455    
  2.9402      3.3155      3.9463      4.9203      6.2972      8.1347      10.708      14.086      27.525      32.637    
  36.526      38.629      38.630      36.527      32.636      27.524      21.906      16.535      12.043      8.7586    
  6.5631      5.0194      3.9649      3.3154      2.9580      2.8028      2.8026      2.9577      3.3157      3.9653    
  5.0192      6.5628      8.7588      12.044      16.534      21.906      39.753      45.710      49.695      51.099    
  49.695      45.710      39.753      32.636      25.248      18.457      12.969      9.1070      6.6562      5.0194    
  3.9464      3.3219      3.0109      2.9185      3.0109      3.3219      3.9464      5.0194      6.6562      9.1069    
  12.969      18.457      25.248      32.636      54.058      60.515      64.071      64.072      60.516      54.058    
  45.710      36.526      27.491      19.512      13.299      9.1070      6.5631      4.9204      3.8941      3.3363    
  3.0992      3.0992      3.3362      3.8942      4.9204      6.5628      9.1070      13.300      19.512      27.491    
  36.526      45.710      69.908      76.430      78.783      76.430      69.908      60.516      49.694      38.630    
  28.281      19.512      12.968      8.7587      6.2974      4.7381      3.8179      3.3620      3.2275      3.3620    
  3.8179      4.7381      6.2974      8.7587      12.968      19.512      28.281      38.630      49.694      60.516    
  86.483      92.220      92.219      86.482      76.431      64.072      51.099      38.629      27.492      18.457    
  12.043      8.1342      5.8936      4.4998      3.7325      3.4065      3.4072      3.7332      4.4991      5.8930    
  8.1351      12.044      18.456      27.491      38.630      51.100      64.071      76.430      101.93      105.51    
  101.93      92.218      78.784      64.072      49.695      36.526      25.248      16.535      10.708      7.3488    
  5.4034      4.2386      3.6548      3.4813      3.6548      4.2386      5.4034      7.3488      10.708      16.535    
  25.248      36.526      49.695      64.072      78.784      92.218      113.25      113.25      105.51      92.219    
  76.430      60.516      45.711      32.636      21.906      14.086      9.2102      6.5068      4.8874      3.9863    
  3.6005      3.5992      3.9850      4.8887      6.5081      9.2088      14.085      21.907      32.637      45.710    
  60.515      76.431      92.220      105.50      113.25      105.50      92.220      76.431      60.515      45.710    
  32.637      21.907      14.085      9.2088      6.5081      4.8887      3.9850      3.5992      3.6005      3.9863    
  4.8874      6.5068      9.2102      14.086      21.906      32.636      45.711      60.516      76.430      92.219    
  105.51      113.25      105.50      95.213      81.067      65.724      50.886      37.401      25.879      16.952    
  10.950      7.4793      5.4881      4.2949      3.6957      3.5175      3.6958      4.2949      5.4881      7.4793    
  10.950      16.953      25.879      37.401      50.886      65.724      81.067      95.214      105.50      109.31    
  92.220      81.067      67.571      53.677      40.536      28.884      19.409      12.623      8.4497      6.0844    
  4.6254      3.8203      3.4769      3.4760      3.8194      4.6263      6.0852      8.4488      12.622      19.410    
  28.885      40.534      53.676      67.572      81.068      92.219      98.646      98.647      76.431      65.723    
  53.676      41.628      30.498      21.062      13.942      9.3020      6.6099      4.9447      3.9549      3.4635    
  3.3185      3.4635      3.9549      4.9447      6.6098      9.3020      13.942      21.062      30.498      41.628    
  53.676      65.723      76.431      84.006      86.766      84.006      60.516      50.886      40.535      30.497    
  21.642      14.671      9.8918      7.0042      5.2105      4.0821      3.4669      3.2058      3.2060      3.4671    
  4.0818      5.2102      7.0045      9.8920      14.670      21.642      30.498      40.535      50.886      60.516    
  68.142      72.413      72.412      68.142      45.710      37.402      28.884      21.062      14.670      10.103    
  7.2195      5.3865      4.1801      3.4765      3.1273      3.0238      3.1273      3.4765      4.1801      5.3866    
  7.2195      10.103      14.670      21.061      28.884      37.402      45.710      52.802      57.633      59.355    
  57.633      52.802      32.637      25.879      19.410      13.943      9.8920      7.2194      5.4482      4.2339    
  3.4850      3.0756      2.8998      2.9000      3.0758      3.4848      4.2336      5.4484      7.2196      9.8919    
  13.943      19.410      25.879      32.637      38.834      43.610      46.220      46.220      43.610      38.835    
  21.906      16.952      12.622      9.3020      7.0045      5.3866      4.2336      3.4882      3.0498      2.8262    
  2.7583      2.8262      3.0498      3.4881      4.2335      5.3865      7.0045      9.3021      12.622      16.952    
  21.906      26.859      31.094      33.953      34.963      33.953      31.094      26.859      14.086      10.950    
  8.4492      6.6093      5.2104      4.1802      3.4848      3.0495      2.8017      2.6902      2.6900      2.8014    
  3.0497      3.4850      4.1800      5.2102      6.6095      8.4494      10.950      14.085      17.544      20.830    
  23.405      24.820      24.820      23.405      20.830      17.544      9.2095      7.4802      6.0848      4.9446    
  4.0820      3.4766      3.0757      2.8261      2.6901      2.6469      2.6901      2.8261      3.0757      3.4767    
  4.0820      4.9445      6.0847      7.4802      9.2095      11.261      13.417      15.335      16.662      17.136    
  16.662      15.335      13.417      11.261      6.5074      5.4881      4.6259      3.9553      3.4670      3.1274    
  2.8999      2.7585      2.6900      2.6901      2.7586      2.8998      3.1273      3.4671      3.9554      4.6258    
  5.4881      6.5075      7.6319      8.8438      10.024      10.978      11.513      11.513      10.978      10.024    
  8.8438      7.6317      4.8880      4.2941      3.8198      3.4635      3.2059      3.0238      2.8999      2.8262    
  2.8015      2.8262      2.8999      3.0238      3.2059      3.4635      3.8199      4.2942      4.8880      5.5744    
  6.2957      6.9774      7.5578      7.9569      8.0999      7.9569      7.5577      6.9774      6.2957      5.5745    
  3.9857      3.6958      3.4764      3.3181      3.2059      3.1273      3.0757      3.0496      3.0496      3.0757    
  3.1273      3.2059      3.3181      3.4764      3.6957      3.9857      4.3431      4.7472      5.1599      5.5325    
  5.8150      5.9674      5.9674      5.8150      5.5325      5.1599      4.7472      4.3431      3.5999      3.5184    
  3.4765      3.4635      3.4670      3.4765      3.4849      3.4881      3.4849      3.4766      3.4670      3.4635    
  3.4764      3.5183      3.5998      3.7253      3.8893      4.0762      4.2629      4.4228      4.5310      4.5693    
  4.5311      4.4230      4.2629      4.0762      3.8892      3.7253      3.5998      3.6958      3.8199      3.9553    
  4.0820      4.1801      4.2337      4.2337      4.1801      4.0820      3.9553      3.8199      3.6958      3.5998    
  3.5420      3.5234      3.5366      3.5696      3.6089      3.6426      3.6619      3.6619      3.6426      3.6089    
  3.5696      3.5366      3.5234      3.5420      3.9857      4.2941      4.6258      4.9447      5.2104      5.3866    
  5.4483      5.3865      5.2103      4.9446      4.6258      4.2942      3.9857      3.7253      3.5234      3.3770    
  3.2753      3.2058      3.1596      3.1326      3.1235      3.1325      3.1596      3.2058      3.2753      3.3771    
  3.5234      3.7253      4.8880      5.4881      6.0847      6.6094      7.0043      7.2195      7.2195      7.0044    
  6.6094      6.0848      5.4881      4.8880      4.3431      3.8893      3.5366      3.2753      3.0866      2.9536    
  2.8664      2.8225      2.8225      2.8664      2.9535      3.0866      3.2753      3.5366      3.8893      4.3431    
  6.5075      7.4801      8.4493      9.3020      9.8919      10.103      9.8920      9.3021      8.4493      7.4800    
  6.5074      5.5745      4.7472      4.0762      3.5696      3.2059      2.9535      2.7864      2.6897      2.6578    
  2.6897      2.7865      2.9536      3.2058      3.5695      4.0761      4.7472      5.5745      9.2096      10.950    
  12.622      13.943      14.670      14.670      13.943      12.622      10.950      9.2095      7.6318      6.2957    
  5.1600      4.2629      3.6088      3.1597      2.8664      2.6896      2.6062      2.6063      2.6898      2.8663    
  3.1596      3.6089      4.2630      5.1599      6.2956      7.6318      14.086      16.952      19.410      21.062    
  21.643      21.061      19.410      16.952      14.086      11.261      8.8436      6.9774      5.5326      4.4228    
  3.6425      3.1326      2.8227      2.6577      2.6061      2.6577      2.8226      3.1325      3.6424      4.4229    
  5.5327      6.9774      8.8436      11.261      21.906      25.879      28.884      30.498      30.498      28.884    
  25.879      21.906      17.544      13.417      10.024      7.5577      5.8151      4.5311      3.6618      3.1234    
  2.8226      2.6898      2.6896      2.8223      3.1236      3.6621      4.5309      5.8148      7.5578      10.025    
  13.417      17.544      32.636      37.402      40.535      41.627      40.535      37.402      32.637      26.859    
  20.830      15.335      10.978      7.9568      5.9674      4.5695      3.6619      3.1323      2.8664      2.7867    
  2.8664      3.1323      3.6620      4.5695      5.9674      7.9567      10.978      15.335      20.830      26.859    
  45.710      50.886      53.676      53.676      50.886      45.710      38.834      31.094      23.405      16.662    
  11.513      8.0999      5.9674      4.5311      3.6427      3.1595      2.9535      2.9536      3.1597      3.6426    
  4.5310      5.9674      8.1000      11.513      16.661      23.405      31.094      38.834      60.516      65.723    
  67.572      65.723      60.516      52.802      43.610      33.953      24.820      17.136      11.513      7.9569    
  5.8151      4.4230      3.6088      3.2058      3.0867      3.2058      3.6087      4.4229      5.8151      7.9568    
  11.513      17.136      24.820      33.953      43.610      52.802      76.431      81.067      81.067      76.430    
  68.143      57.634      46.220      34.963      24.820      16.662      10.978      7.5575      5.5327      4.2632    
  3.5694      3.2751      3.2755      3.5697      4.2627      5.5323      7.5580      10.978      16.661      24.820    
  34.964      46.220      57.633      68.142      92.219      95.215      92.219      84.006      72.413      59.356    
  46.220      33.952      23.405      15.336      10.024      6.9768      5.1599      4.0767      3.5366      3.3765    
  3.5366      4.0767      5.1600      6.9769      10.024      15.336      23.405      33.952      46.220      59.356    
  72.413      84.006      105.50      105.51      98.647      86.766      72.412      57.634      43.611      31.094    
  20.829      13.417      8.8443      6.2952      4.7466      3.8898      3.5239      3.5229      3.8888      4.7477    
  6.2962      8.8432      13.416      20.831      31.095      43.610      57.633      72.413      86.767      98.646    
  113.25      109.31      98.648      84.006      68.141      52.802      38.835      26.859      17.543      11.261    
  7.6327      5.5745      4.3422      3.7253      3.5429      3.7253      4.3422      5.5745      7.6327      11.261    
  17.543      26.859      38.835      52.802      68.141      84.006      98.648      109.31      101.93      92.218    
  78.784      64.072      49.695      36.526      25.248      16.535      10.708      7.3488      5.4034      4.2386    
  3.6548      3.4813      3.6548      4.2386      5.4034      7.3488      10.708      16.535      25.248      36.526    
  49.695      64.072      78.784      92.218      101.93      105.51      92.220      81.067      67.571      53.677    
  40.536      28.884      19.409      12.623      8.4497      6.0844      4.6254      3.8203      3.4769      3.4760    
  3.8194      4.6263      6.0852      8.4488      12.622      19.410      28.885      40.534      53.676      67.572    
  81.068      92.219      98.646      98.647      78.784      67.572      55.064      42.658      31.257      21.597    
  14.284      9.4942      6.7183      5.0166      4.0026      3.4987      3.3500      3.4987      4.0026      5.0166    
  6.7182      9.4942      14.284      21.597      31.257      42.658      55.064      67.572      78.784      86.766    
  89.683      86.766      64.072      53.677      42.657      32.079      22.772      15.410      10.321      7.2416    
  5.3651      4.1827      3.5365      3.2623      3.2626      3.5369      4.1823      5.3648      7.2419      10.322    
  15.409      22.771      32.079      42.658      53.676      64.071      72.413      77.124      77.124      72.412    
  49.695      40.535      31.257      22.771      15.807      10.779      7.5952      5.6264      4.3339      3.5781    
  3.2032      3.0921      3.2032      3.5781      4.3339      5.6263      7.5952      10.779      15.807      22.771    
  31.257      40.535      49.695      57.633      63.115      65.083      63.115      57.633      36.527      28.884    
  21.597      15.410      10.779      7.7204      5.7664      4.4354      3.6121      3.1634      2.9716      2.9717    
  3.1635      3.6119      4.4352      5.7665      7.7206      10.779      15.409      21.597      28.884      36.527    
  43.610      49.138      52.189      52.189      49.138      43.610      25.248      19.410      14.284      10.322    
  7.5953      5.7664      4.4708      3.6310      3.1401      2.8921      2.8174      2.8921      3.1400      3.6310    
  4.4708      5.7664      7.5953      10.322      14.284      19.410      25.248      31.094      36.128      39.553    
  40.769      39.553      36.128      31.094      16.535      12.622      9.4941      7.2417      5.6266      4.4354    
  3.6309      3.1319      2.8520      2.7280      2.7278      2.8518      3.1321      3.6312      4.4352      5.6262    
  7.2419      9.4944      12.622      16.534      20.830      24.909      28.114      29.881      29.881      28.114    
  24.909      20.830      10.708      8.4494      6.7178      5.3647      4.3339      3.6121      3.1399      2.8518    
  2.6982      2.6501      2.6982      2.8518      3.1399      3.6121      4.3339      5.3647      6.7178      8.4494    
  10.708      13.417      16.261      18.788      20.535      21.160      20.535      18.788      16.261      13.417    
  7.3495      6.0849      5.0167      4.1824      3.5779      3.1635      2.8922      2.7278      2.6499      2.6501    
  2.7280      2.8921      3.1634      3.5781      4.1826      5.0165      6.0847      7.3495      8.8438      10.522    
  12.178      13.520      14.274      14.274      13.520      12.178      10.522      8.8437      5.4034      4.6258    
  4.0031      3.5367      3.2031      2.9716      2.8176      2.7279      2.6982      2.7279      2.8176      2.9716    
  3.2031      3.5367      4.0031      4.6258      5.4034      6.2956      7.2345      8.1749      9.0141      9.6032    
  9.8160      9.6032      9.0141      8.1749      7.2345      6.2956      4.2378      3.8198      3.4987      3.2625    
  3.0922      2.9717      2.8921      2.8519      2.8519      2.8922      2.9716      3.0921      3.2624      3.4987    
  3.8199      4.2379      4.7472      5.3177      5.8956      6.4129      6.8047      7.0187      7.0187      6.8047    
  6.4129      5.8956      5.3177      4.7472      3.6548      3.4764      3.3495      3.2624      3.2032      3.1635    
  3.1399      3.1320      3.1399      3.1635      3.2032      3.2624      3.3495      3.4764      3.6548      3.8893    
  4.1727      4.4833      4.7875      5.0451      5.2180      5.2790      5.2180      5.0451      4.7875      4.4833    
  4.1727      3.8893      3.4820      3.4765      3.4987      3.5367      3.5780      3.6120      3.6311      3.6310    
  3.6120      3.5780      3.5367      3.4987      3.4764      3.4820      3.5234      3.6013      3.7081      3.8292    
  3.9456      4.0376      4.0885      4.0886      4.0377      3.9456      3.8291      3.7081      3.6013      3.5234    
  3.6548      3.8199      4.0031      4.1825      4.3339      4.4353      4.4709      4.4353      4.3339      4.1825    
  4.0031      3.8199      3.6548      3.5234      3.4322      3.3788      3.3545      3.3486      3.3515      3.3561    
  3.3582      3.3562      3.3515      3.3486      3.3545      3.3788      3.4322      3.5234      4.2378      4.6258    
  5.0166      5.3650      5.6264      5.7665      5.7664      5.6263      5.3649      5.0166      4.6258      4.2379    
  3.8893      3.6013      3.3788      3.2142      3.0953      3.0110      2.9554      2.9274      2.9273      2.9553    
  3.0109      3.0953      3.2143      3.3788      3.6013      3.8892      5.4034      6.0847      6.7178      7.2417    
  7.5952      7.7206      7.5952      7.2418      6.7178      6.0847      5.4035      4.7472      4.1727      3.7081    
  3.3545      3.0953      2.9098      2.7826      2.7068      2.6814      2.7068      2.7826      2.9098      3.0952    
  3.3545      3.7081      4.1727      4.7472      7.3496      8.4492      9.4942      10.322      10.779      10.779    
  10.322      9.4943      8.4493      7.3495      6.2956      5.3177      4.4833      3.8291      3.3486      3.0110    
  2.7826      2.6396      2.5701      2.5702      2.6398      2.7826      3.0109      3.3486      3.8292      4.4833    
  5.3177      6.2957      10.709      12.622      14.284      15.409      15.807      15.409      14.284      12.622    
  10.709      8.8438      7.2343      5.8956      4.7876      3.9456      3.3514      2.9554      2.7069      2.5702    
  2.5264      2.5701      2.7069      2.9554      3.3514      3.9456      4.7876      5.8956      7.2343      8.8437    
  16.535      19.410      21.597      22.771      22.771      21.597      19.410      16.534      13.417      10.523    
  8.1748      6.4128      5.0452      4.0377      3.3560      2.9273      2.6815      2.5703      2.5700      2.6812    
  2.9275      3.3563      4.0376      5.0450      6.4130      8.1750      10.522      13.417      25.248      28.884    
  31.257      32.079      31.257      28.884      25.248      20.830      16.261      12.179      9.0141      6.8045    
  5.2180      4.0887      3.3582      2.9272      2.7068      2.6399      2.7068      2.9272      3.3582      4.0887    
  5.2180      6.8045      9.0141      12.179      16.261      20.830      36.526      40.535      42.658      42.658    
  40.535      36.527      31.094      24.909      18.787      13.520      9.6033      7.0186      5.2789      4.0887    
  3.3563      2.9552      2.7825      2.7827      2.9555      3.3561      4.0884      5.2790      7.0188      9.6031    
  13.520      18.788      24.909      31.094      49.695      53.676      55.064      53.676      49.695      43.610    
  36.128      28.114      20.535      14.274      9.8160      7.0187      5.2180      4.0377      3.3516      3.0109    
  2.9097      3.0109      3.3516      4.0377      5.2180      7.0187      9.8160      14.274      20.535      28.114    
  36.128      43.610      64.072      67.572      67.572      64.071      57.633      49.138      39.553      29.881    
  21.160      14.274      9.6031      6.8046      5.0452      3.9457      3.3485      3.0952      3.0953      3.3486    
  3.9455      5.0450      6.8048      9.6033      14.274      21.160      29.881      39.553      49.138      57.633    
  78.784      81.067      78.784      72.412      63.115      52.190      40.769      29.881      20.535      13.521    
  9.0141      6.4126      4.7875      3.8295      3.3545      3.2140      3.3545      3.8295      4.7875      6.4126    
  9.0141      13.521      20.535      29.881      40.769      52.190      63.115      72.412      92.219      92.220    
  86.767      77.124      65.083      52.190      39.553      28.114      18.787      12.179      8.1752      5.8952    
  4.4829      3.7085      3.3791      3.3784      3.7078      4.4837      5.8959      8.1745      12.178      18.788    
  28.115      39.552      52.189      65.084      77.124      86.766      101.93      98.647      89.684      77.124    
  63.114      49.138      36.129      24.909      16.260      10.522      7.2351      5.3177      4.1720      3.6013    
  3.4329      3.6013      4.1720      5.3177      7.2351      10.522      16.260      24.909      36.129      49.138    
  63.114      77.124      89.684      98.647      105.50      98.646      86.767      72.413      57.633      43.610    
  31.095      20.831      13.416      8.8432      6.2962      4.7477      3.8888      3.5229      3.5239      3.8898    
  4.7466      6.2952      8.8443      13.417      20.829      31.094      43.611      57.634      72.412      86.766    
  98.647      105.51      86.483      76.430      64.071      51.100      38.630      27.491      18.456      12.044    
  8.1351      5.8930      4.4991      3.7332      3.4072      3.4065      3.7325      4.4998      5.8936      8.1342    
  12.043      18.457      27.492      38.629      51.099      64.072      76.431      86.482      92.219      92.220    
  76.431      65.723      53.676      41.628      30.498      21.062      13.942      9.3020      6.6099      4.9447    
  3.9549      3.4635      3.3185      3.4635      3.9549      4.9447      6.6098      9.3020      13.942      21.062    
  30.498      41.628      53.676      65.723      76.431      84.006      86.766      84.006      64.072      53.677    
  42.657      32.079      22.772      15.410      10.321      7.2416      5.3651      4.1827      3.5365      3.2623    
  3.2626      3.5369      4.1823      5.3648      7.2419      10.322      15.409      22.771      32.079      42.658    
  53.676      64.071      72.413      77.124      77.124      72.412      51.099      41.628      32.079      23.365    
  16.204      11.019      7.7277      5.7096      4.3876      3.6135      3.2295      3.1158      3.2295      3.6135    