unknown system                          
   1.00000000000000     
     2.970697    0.000000    0.000000
     1.485349    2.572699    0.000000
     1.485349    0.857566    2.425564
   Pd
     1
Direct
  0.000000  0.000000  0.000000
 
   28   28   28
 0.11744366286E+03 0.11324737368E+03 0.10192940549E+03 0.86482232261E+02 0.69906297880E+02
 0.54058147087E+02 0.39753937260E+02 0.27524482371E+02 0.17988086701E+02 0.11521285426E+02
 0.77725289172E+01 0.56636640333E+01 0.44014746534E+01 0.37683036788E+01 0.35809933350E+01
 0.37683036788E+01 0.44014746534E+01 0.56636640333E+01 0.77725289172E+01 0.11521285426E+02
 0.17988086701E+02 0.27524482371E+02 0.39753937260E+02 0.54058147087E+02 0.69906297880E+02
 0.86482232261E+02 0.10192940549E+03 0.11324737368E+03 0.11324672798E+03 0.10550382818E+03
 0.92219815008E+02 0.76431130745E+02 0.60515050200E+02 0.45709605461E+02 0.32637174934E+02
 0.21906816866E+02 0.14084911965E+02 0.92088454118E+01 0.65080572390E+01 0.48886531977E+01
 0.39850498028E+01 0.35992219793E+01 0.36004827084E+01 0.39863023072E+01 0.48873871761E+01
 0.65068388538E+01 0.92101908226E+01 0.14086226620E+02 0.21905541400E+02 0.32635866396E+02
 0.45710793190E+02 0.60516179991E+02 0.76429743888E+02 0.92218573412E+02 0.10550525199E+03
 0.11324808889E+03 0.10192843566E+03 0.92218413196E+02 0.78783823749E+02 0.64072255876E+02
 0.49694564245E+02 0.36525716055E+02 0.25247869318E+02 0.16535219146E+02 0.10708469626E+02
 0.73487940475E+01 0.54034435223E+01 0.42385795541E+01 0.36547793072E+01 0.34812964171E+01
 0.36547885145E+01 0.42385899939E+01 0.54034456472E+01 0.73487853203E+01 0.10708455920E+02
 0.16535210154E+02 0.25247868704E+02 0.36525717215E+02 0.49694552598E+02 0.64072219504E+02
 0.78783765796E+02 0.92218351041E+02 0.10192839516E+03 0.10550536240E+03 0.86482609724E+02
 0.76430107583E+02 0.64071122299E+02 0.51099599610E+02 0.38629886764E+02 0.27490755735E+02
 0.18456132257E+02 0.12043979815E+02 0.81350530562E+01 0.58929581641E+01 0.44990745903E+01
 0.37332232616E+01 0.34072186967E+01 0.34065046990E+01 0.37325331252E+01 0.44998195818E+01
 0.58936159070E+01 0.81342033133E+01 0.12043204024E+02 0.18456914958E+02 0.27491537087E+02
 0.38629178458E+02 0.51098941308E+02 0.64071941849E+02 0.76430771856E+02 0.86481646785E+02
 0.92218729692E+02 0.92219596573E+02 0.69907560979E+02 0.60515695899E+02 0.49694270976E+02
 0.38629509301E+02 0.28281077357E+02 0.19512107950E+02 0.12968379171E+02 0.87586552343E+01
 0.62973803830E+01 0.47380687492E+01 0.38179140248E+01 0.33620411540E+01 0.32275163216E+01
 0.33620468379E+01 0.38179218007E+01 0.47380741350E+01 0.62973809036E+01 0.87586521782E+01
 0.12968376891E+02 0.19512110693E+02 0.28281087807E+02 0.38629524928E+02 0.49694288098E+02
 0.60515711090E+02 0.69907570694E+02 0.76430394393E+02 0.78783472527E+02 0.76430389586E+02
 0.54058203880E+02 0.45710307952E+02 0.36526415376E+02 0.27491076405E+02 0.19512164743E+02
 0.13299679780E+02 0.91069594968E+01 0.65628402413E+01 0.49203990535E+01 0.38941915054E+01
 0.33362391605E+01 0.30991619674E+01 0.30992222974E+01 0.33362793680E+01 0.38941195855E+01
 0.49204313523E+01 0.65630520325E+01 0.91070383031E+01 0.13299488153E+02 0.19512043192E+02
 0.27491218538E+02 0.36526493916E+02 0.45710134851E+02 0.54058148986E+02 0.60515767882E+02
 0.64071621179E+02 0.64071406598E+02 0.60515477500E+02 0.39752967430E+02 0.32636457174E+02
 0.25247869318E+02 0.18456581782E+02 0.12968672440E+02 0.91069442275E+01 0.66561877258E+01
 0.50194280861E+01 0.39464245785E+01 0.33218531780E+01 0.30109334978E+01 0.29184654492E+01
 0.30109294454E+01 0.33218508218E+01 0.39464300998E+01 0.50194417580E+01 0.66562031571E+01
 0.91069515261E+01 0.12968669450E+02 0.18456572723E+02 0.25247869319E+02 0.32636476934E+02
 0.39753006163E+02 0.45710263705E+02 0.49694581367E+02 0.51099246708E+02 0.49694552598E+02
 0.45710219554E+02 0.27524588811E+02 0.21906064728E+02 0.16534356593E+02 0.12043708792E+02
 0.87587616738E+01 0.65627905946E+01 0.50192495845E+01 0.39653098625E+01 0.33156500258E+01
 0.29577008223E+01 0.28025591467E+01 0.28028337821E+01 0.29579844104E+01 0.33153612947E+01
 0.39649347524E+01 0.50194099382E+01 0.65631055418E+01 0.87586477436E+01 0.12043477131E+02
 0.16534504963E+02 0.21906289650E+02 0.27524454036E+02 0.32636442557E+02 0.36526543563E+02
 0.38629631368E+02 0.38629449481E+02 0.36526366889E+02 0.32636618534E+02 0.17989218251E+02
 0.14085557663E+02 0.10708307907E+02 0.81346755933E+01 0.62972488338E+01 0.49203422607E+01
 0.39462628592E+01 0.33155435863E+01 0.29401646353E+01 0.27454627422E+01 0.26855932685E+01
 0.27454537839E+01 0.29401525442E+01 0.33155350685E+01 0.39462628837E+01 0.49203477918E+01
 0.62972563456E+01 0.81346764203E+01 0.10708302373E+02 0.14085548674E+02 0.17989209350E+02
 0.21906183211E+02 0.25247707600E+02 0.27491161745E+02 0.28280956257E+02 0.27491159624E+02
 0.25247706985E+02 0.21906187099E+02 0.11521375141E+02 0.92095808250E+01 0.73494604464E+01
 0.58932459120E+01 0.47381584642E+01 0.38942244275E+01 0.33218355251E+01 0.29577175469E+01
 0.27455524572E+01 0.26480226966E+01 0.26478065430E+01 0.27453408844E+01 0.29579727400E+01
 0.33221414441E+01 0.38940769741E+01 0.47378869748E+01 0.58933358788E+01 0.73496509326E+01
 0.92094706503E+01 0.11521230319E+02 0.14085638389E+02 0.16534488238E+02 0.18456410946E+02
 0.19512010270E+02 0.19512200408E+02 0.18456627210E+02 0.16534364325E+02 0.14085491207E+02
 0.77715590865E+01 0.65074847170E+01 0.54034435223E+01 0.44993788771E+01 0.38182072934E+01
 0.33363691294E+01 0.30109334978E+01 0.28025924100E+01 0.26857549878E+01 0.26479694341E+01
 0.26857610532E+01 0.28025998443E+01 0.30109377459E+01 0.33363672585E+01 0.38182037129E+01
 0.44993787833E+01 0.54034507428E+01 0.65075031655E+01 0.77715786905E+01 0.92094871891E+01
 0.10708464093E+02 0.12043656747E+02 0.12968669450E+02 0.13299471770E+02 0.12968670160E+02
 0.12043654663E+02 0.10708455920E+02 0.92094719483E+01 0.56636464695E+01 0.48880250633E+01
 0.42378410040E+01 0.37328282349E+01 0.33620235902E+01 0.30992363239E+01 0.29184109509E+01
 0.28027097788E+01 0.27454362201E+01 0.27454481632E+01 0.28026905843E+01 0.29183156515E+01
 0.30991560186E+01 0.33620533501E+01 0.37329170213E+01 0.42378866006E+01 0.48880187352E+01
 0.56636339260E+01 0.65074475531E+01 0.73495436539E+01 0.81346588565E+01 0.87587717469E+01
 0.91070411519E+01 0.91069639466E+01 0.87586346144E+01 0.81345983400E+01 0.73495589979E+01
 0.65074669882E+01 0.44024478783E+01 0.39856955010E+01 0.36547759130E+01 0.34068412337E+01
 0.32272264472E+01 0.30991655046E+01 0.30109260512E+01 0.29578779709E+01 0.29399942191E+01
 0.29578830251E+01 0.30109343518E+01 0.30991735823E+01 0.32272325811E+01 0.34068440969E+01
 0.36547753887E+01 0.39856959635E+01 0.44024504127E+01 0.48880362990E+01 0.54034473487E+01
 0.58932461638E+01 0.62970980204E+01 0.65629991023E+01 0.66561997629E+01 0.65629952397E+01
 0.62970910292E+01 0.58932384440E+01 0.54034422531E+01 0.48880328742E+01 0.37683099973E+01
 0.35998739961E+01 0.34820462124E+01 0.34068758434E+01 0.33620531564E+01 0.33362288938E+01
 0.33219165653E+01 0.33154614157E+01 0.33155413871E+01 0.33220580477E+01 0.33362877638E+01
 0.33620294678E+01 0.34068504154E+01 0.34820250045E+01 0.35998242897E+01 0.37682793185E+01
 0.39857022820E+01 0.42379104829E+01 0.44994456409E+01 0.47379703713E+01 0.49203541104E+01
 0.50193098172E+01 0.50193633774E+01 0.49204818265E+01 0.47380804536E+01 0.44994484374E+01
 0.42378275615E+01 0.39856502904E+01 0.35800235043E+01 0.35998370102E+01 0.36547885145E+01
 0.37329105881E+01 0.38182150693E+01 0.38941763783E+01 0.39464300998E+01 0.39650411919E+01
 0.39464246031E+01 0.38941666891E+01 0.38182037129E+01 0.37328994575E+01 0.36547787829E+01
 0.35998306082E+01 0.35800187774E+01 0.35998306082E+01 0.36547787829E+01 0.37328994575E+01
 0.38182037129E+01 0.38941666891E+01 0.39464246031E+01 0.39650411919E+01 0.39464300998E+01
 0.38941763783E+01 0.38182150693E+01 0.37329105881E+01 0.36547885145E+01 0.35998370102E+01
 0.37683099973E+01 0.39856502904E+01 0.42378275615E+01 0.44994484374E+01 0.47380804536E+01
 0.49204818265E+01 0.50193633774E+01 0.50193098172E+01 0.49203541104E+01 0.47379703713E+01
 0.44994456409E+01 0.42379104829E+01 0.39857022820E+01 0.37682793185E+01 0.35998242897E+01
 0.34820250045E+01 0.34068504154E+01 0.33620294678E+01 0.33362877638E+01 0.33220580477E+01
 0.33155413871E+01 0.33154614157E+01 0.33219165653E+01 0.33362288938E+01 0.33620531564E+01
 0.34068758434E+01 0.34820462124E+01 0.35998739961E+01 0.44024478783E+01 0.48880328742E+01
 0.54034422531E+01 0.58932384440E+01 0.62970910292E+01 0.65629952397E+01 0.66561997629E+01
 0.65629991023E+01 0.62970980204E+01 0.58932461638E+01 0.54034473487E+01 0.48880362990E+01
 0.44024504127E+01 0.39856959635E+01 0.36547753887E+01 0.34068440969E+01 0.32272325811E+01
 0.30991735823E+01 0.30109343518E+01 0.29578830251E+01 0.29399942191E+01 0.29578779709E+01
 0.30109260512E+01 0.30991655046E+01 0.32272264472E+01 0.34068412337E+01 0.36547759130E+01
 0.39856955010E+01 0.56636464695E+01 0.65074669882E+01 0.73495589979E+01 0.81345983400E+01
 0.87586346144E+01 0.91069639466E+01 0.91070411519E+01 0.87587717469E+01 0.81346588565E+01
 0.73495436539E+01 0.65074475531E+01 0.56636339260E+01 0.48880187352E+01 0.42378866006E+01
 0.37329170213E+01 0.33620533501E+01 0.30991560186E+01 0.29183156515E+01 0.28026905843E+01
 0.27454481632E+01 0.27454362201E+01 0.28027097788E+01 0.29184109509E+01 0.30992363239E+01
 0.33620235902E+01 0.37328282349E+01 0.42378410040E+01 0.48880250633E+01 0.77715590865E+01
 0.92094719483E+01 0.10708455920E+02 0.12043654663E+02 0.12968670160E+02 0.13299471770E+02
 0.12968669450E+02 0.12043656747E+02 0.10708464093E+02 0.92094871891E+01 0.77715786905E+01
 0.65075031655E+01 0.54034507428E+01 0.44993787833E+01 0.38182037129E+01 0.33363672585E+01
 0.30109377459E+01 0.28025998443E+01 0.26857610532E+01 0.26479694341E+01 0.26857549878E+01
 0.28025924100E+01 0.30109334978E+01 0.33363691294E+01 0.38182072934E+01 0.44993788771E+01
 0.54034435223E+01 0.65074847170E+01 0.11521375141E+02 0.14085491207E+02 0.16534364325E+02
 0.18456627210E+02 0.19512200408E+02 0.19512010270E+02 0.18456410946E+02 0.16534488238E+02
 0.14085638389E+02 0.11521230319E+02 0.92094706503E+01 0.73496509326E+01 0.58933358788E+01
 0.47378869748E+01 0.38940769741E+01 0.33221414441E+01 0.29579727400E+01 0.27453408844E+01
 0.26478065430E+01 0.26480226966E+01 0.27455524572E+01 0.29577175469E+01 0.33218355251E+01
 0.38942244275E+01 0.47381584642E+01 0.58932459120E+01 0.73494604464E+01 0.92095808250E+01
 0.17989218251E+02 0.21906187099E+02 0.25247706985E+02 0.27491159624E+02 0.28280956257E+02
 0.27491161745E+02 0.25247707600E+02 0.21906183211E+02 0.17989209350E+02 0.14085548674E+02
 0.10708302373E+02 0.81346764203E+01 0.62972563456E+01 0.49203477918E+01 0.39462628837E+01
 0.33155350685E+01 0.29401525442E+01 0.27454537839E+01 0.26855932685E+01 0.27454627422E+01
 0.29401646353E+01 0.33155435863E+01 0.39462628592E+01 0.49203422607E+01 0.62972488338E+01
 0.81346755933E+01 0.10708307907E+02 0.14085557663E+02 0.27524588811E+02 0.32636618534E+02
 0.36526366889E+02 0.38629449481E+02 0.38629631368E+02 0.36526543563E+02 0.32636442557E+02
 0.27524454036E+02 0.21906289650E+02 0.16534504963E+02 0.12043477131E+02 0.87586477436E+01
 0.65631055418E+01 0.50194099382E+01 0.39649347524E+01 0.33153612947E+01 0.29579844104E+01
 0.28028337821E+01 0.28025591467E+01 0.29577008223E+01 0.33156500258E+01 0.39653098625E+01
 0.50192495845E+01 0.65627905946E+01 0.87587616738E+01 0.12043708792E+02 0.16534356593E+02
 0.21906064728E+02 0.39752967430E+02 0.45710219554E+02 0.49694552598E+02 0.51099246708E+02
 0.49694581367E+02 0.45710263705E+02 0.39753006163E+02 0.32636476934E+02 0.25247869319E+02
 0.18456572723E+02 0.12968669450E+02 0.91069515261E+01 0.66562031571E+01 0.50194417580E+01
 0.39464300998E+01 0.33218508218E+01 0.30109294454E+01 0.29184654492E+01 0.30109334978E+01
 0.33218531780E+01 0.39464245785E+01 0.50194280861E+01 0.66561877258E+01 0.91069442275E+01
 0.12968672440E+02 0.18456581782E+02 0.25247869318E+02 0.32636457174E+02 0.54058203880E+02
 0.60515477500E+02 0.64071406598E+02 0.64071621179E+02 0.60515767882E+02 0.54058148986E+02
 0.45710134851E+02 0.36526493916E+02 0.27491218538E+02 0.19512043192E+02 0.13299488153E+02
 0.91070383031E+01 0.65630520325E+01 0.49204313523E+01 0.38941195855E+01 0.33362793680E+01
 0.30992222974E+01 0.30991619674E+01 0.33362391605E+01 0.38941915054E+01 0.49203990535E+01
 0.65628402413E+01 0.91069594968E+01 0.13299679780E+02 0.19512164743E+02 0.27491076405E+02
 0.36526415376E+02 0.45710307952E+02 0.69907560979E+02 0.76430389586E+02 0.78783472527E+02
 0.76430394393E+02 0.69907570694E+02 0.60515711090E+02 0.49694288098E+02 0.38629524928E+02
 0.28281087807E+02 0.19512110693E+02 0.12968376891E+02 0.87586521782E+01 0.62973809036E+01
 0.47380741350E+01 0.38179218007E+01 0.33620468379E+01 0.32275163216E+01 0.33620411540E+01
 0.38179140248E+01 0.47380687492E+01 0.62973803830E+01 0.87586552343E+01 0.12968379171E+02
 0.19512107950E+02 0.28281077357E+02 0.38629509301E+02 0.49694270976E+02 0.60515695899E+02
 0.86482609724E+02 0.92219596573E+02 0.92218729692E+02 0.86481646785E+02 0.76430771856E+02
 0.64071941849E+02 0.51098941308E+02 0.38629178458E+02 0.27491537087E+02 0.18456914958E+02
 0.12043204024E+02 0.81342033133E+01 0.58936159070E+01 0.44998195818E+01 0.37325331252E+01
 0.34065046990E+01 0.34072186967E+01 0.37332232616E+01 0.44990745903E+01 0.58929581641E+01
 0.81350530562E+01 0.12043979815E+02 0.18456132257E+02 0.27490755735E+02 0.38629886764E+02
 0.51099599610E+02 0.64071122299E+02 0.76430107583E+02 0.10192843566E+03 0.10550536240E+03
 0.10192839516E+03 0.92218351041E+02 0.78783765796E+02 0.64072219504E+02 0.49694552598E+02
 0.36525717215E+02 0.25247868704E+02 0.16535210154E+02 0.10708455920E+02 0.73487853203E+01
 0.54034456472E+01 0.42385899939E+01 0.36547885145E+01 0.34812964171E+01 0.36547793072E+01
 0.42385795541E+01 0.54034435223E+01 0.73487940475E+01 0.10708469626E+02 0.16535219146E+02
 0.25247869318E+02 0.36525716055E+02 0.49694564245E+02 0.64072255876E+02 0.78783823749E+02
 0.92218413196E+02 0.11324672798E+03 0.11324808889E+03 0.10550525199E+03 0.92218573412E+02
 0.76429743888E+02 0.60516179991E+02 0.45710793190E+02 0.32635866396E+02 0.21905541400E+02
 0.14086226620E+02 0.92101908226E+01 0.65068388538E+01 0.48873871761E+01 0.39863023072E+01
 0.36004827084E+01 0.35992219793E+01 0.39850498028E+01 0.48886531977E+01 0.65080572390E+01
 0.92088454118E+01 0.14084911965E+02 0.21906816866E+02 0.32637174934E+02 0.45709605461E+02
 0.60515050200E+02 0.76431130745E+02 0.92219815008E+02 0.10550382818E+03 0.11324672798E+03
 0.10550382818E+03 0.92219815008E+02 0.76431130745E+02 0.60515050200E+02 0.45709605461E+02
 0.32637174934E+02 0.21906816866E+02 0.14084911965E+02 0.92088454118E+01 0.65080572390E+01
 0.48886531977E+01 0.39850498028E+01 0.35992219793E+01 0.36004827084E+01 0.39863023072E+01
 0.48873871761E+01 0.65068388538E+01 0.92101908226E+01 0.14086226620E+02 0.21905541400E+02
 0.32635866396E+02 0.45710793190E+02 0.60516179991E+02 0.76429743888E+02 0.92218573412E+02
 0.10550525199E+03 0.11324808889E+03 0.10550446759E+03 0.95213469333E+02 0.81067109194E+02
 0.65723697593E+02 0.50886043675E+02 0.37401016473E+02 0.25878844573E+02 0.16952336470E+02
 0.10949841276E+02 0.74792741698E+01 0.54881123182E+01 0.42949157200E+01 0.36957274317E+01
 0.35175413946E+01 0.36957956086E+01 0.42949459403E+01 0.54880780947E+01 0.74792927961E+01
 0.10949994049E+02 0.16952513119E+02 0.25878844161E+02 0.37400785217E+02 0.50885738284E+02
 0.65723530043E+02 0.81067160852E+02 0.95213650350E+02 0.10550461658E+03 0.10930730578E+03
 0.92219629796E+02 0.81066645101E+02 0.67571448215E+02 0.53676864456E+02 0.40535556794E+02
 0.28883788892E+02 0.19409455065E+02 0.12622720560E+02 0.84497379622E+01 0.60843611524E+01
 0.46253604422E+01 0.38202599284E+01 0.34768834910E+01 0.34760214538E+01 0.38194274474E+01
 0.46262682937E+01 0.60851949936E+01 0.84488103622E+01 0.12621920987E+02 0.19410476840E+02
 0.28884642883E+02 0.40534463366E+02 0.53675846776E+02 0.67572398991E+02 0.81067609926E+02
 0.92218687650E+02 0.98646137087E+02 0.98647084818E+02 0.76430918357E+02 0.65722874094E+02
 0.53675975559E+02 0.41627503356E+02 0.30497968933E+02 0.21061508442E+02 0.13942441035E+02
 0.93020410171E+01 0.66098599636E+01 0.49446620502E+01 0.39548792509E+01 0.34635007850E+01
 0.33184961947E+01 0.34634848844E+01 0.39548843163E+01 0.49446700254E+01 0.66098108530E+01
 0.93019503762E+01 0.13942402280E+02 0.21061566948E+02 0.30498069846E+02 0.41627581147E+02
 0.53676007204E+02 0.65722843711E+02 0.76430826743E+02 0.84006305080E+02 0.86765639926E+02
 0.84006393870E+02 0.60515838845E+02 0.50886190500E+02 0.40534956950E+02 0.30497401113E+02
 0.21642470344E+02 0.14670528072E+02 0.98917988162E+01 0.70042109117E+01 0.52104700493E+01
 0.40821132391E+01 0.34668970724E+01 0.32057913331E+01 0.32060300975E+01 0.34671151469E+01
 0.40818390632E+01 0.52102418454E+01 0.70044899282E+01 0.98920128032E+01 0.14670223307E+02
 0.21642274772E+02 0.30497788864E+02 0.40535247327E+02 0.50885850000E+02 0.60515556418E+02
 0.68142483498E+02 0.72412738981E+02 0.72412401390E+02 0.68142115765E+02 0.45710250740E+02
 0.37401855881E+02 0.28884250482E+02 0.21061500247E+02 0.14670393305E+02 0.10103023474E+02
 0.72194621498E+01 0.53865487029E+01 0.41801093581E+01 0.34765135174E+01 0.31273422780E+01
 0.30238060855E+01 0.31273284028E+01 0.34765009386E+01 0.41801185072E+01 0.53865869265E+01
 0.72195105336E+01 0.10103053748E+02 0.14670391216E+02 0.21061474790E+02 0.28884223167E+02
 0.37401851472E+02 0.45710289206E+02 0.52801722957E+02 0.57633286604E+02 0.59355479172E+02
 0.57633225895E+02 0.52801650237E+02 0.32636616130E+02 0.25878772343E+02 0.19409835343E+02
 0.13942946631E+02 0.98920299951E+01 0.72193966114E+01 0.54482274865E+01 0.42338693725E+01
 0.34849753648E+01 0.30755927851E+01 0.28997714052E+01 0.28999666252E+01 0.30758022492E+01
 0.34847951772E+01 0.42336321876E+01 0.54483506986E+01 0.72195986614E+01 0.98919200800E+01
 0.13942785719E+02 0.19409996800E+02 0.25879007531E+02 0.32636536857E+02 0.38834381362E+02
 0.43610117312E+02 0.46220250075E+02 0.46220185755E+02 0.43610125780E+02 0.38834592241E+02
 0.21906342486E+02 0.16951528695E+02 0.12622104568E+02 0.93020357756E+01 0.70045172792E+01
 0.53865751942E+01 0.42336387219E+01 0.34881873956E+01 0.30497846939E+01 0.28262071143E+01
 0.27583424759E+01 0.28262302431E+01 0.30497777672E+01 0.34881207350E+01 0.42335481313E+01
 0.53865196495E+01 0.70045214051E+01 0.93020908320E+01 0.12622201802E+02 0.16951637997E+02
 0.21906393678E+02 0.26858798627E+02 0.31094045329E+02 0.33952829695E+02 0.34963397652E+02
 0.33952989325E+02 0.31094231345E+02 0.26858876372E+02 0.14085661118E+02 0.10949964398E+02
 0.84491879507E+01 0.66093266670E+01 0.52104305579E+01 0.41802199774E+01 0.34847942813E+01
 0.30495129172E+01 0.28016990321E+01 0.26902044983E+01 0.26899646215E+01 0.28014404797E+01
 0.30497195193E+01 0.34850430993E+01 0.41800207150E+01 0.52101699096E+01 0.66094901698E+01
 0.84494308120E+01 0.10949844643E+02 0.14085493574E+02 0.17544011446E+02 0.20830014273E+02
 0.23404938692E+02 0.24819887019E+02 0.24820116331E+02 0.23405216590E+02 0.20829904057E+02
 0.17543858919E+02 0.92094823272E+01 0.74802052512E+01 0.60848354369E+01 0.49445687785E+01
 0.40819728945E+01 0.34766051912E+01 0.30756697221E+01 0.28260938911E+01 0.26900868404E+01
 0.26469007494E+01 0.26900833991E+01 0.28261047162E+01 0.30757220580E+01 0.34766847307E+01
 0.40820058608E+01 0.49445029556E+01 0.60847399788E+01 0.74801876493E+01 0.92095486669E+01
 0.11260843314E+02 0.13416708440E+02 0.15334998604E+02 0.16661527225E+02 0.17135506125E+02
 0.16661568861E+02 0.15335057226E+02 0.13416726476E+02 0.11260786666E+02 0.65073817210E+01
 0.54881450261E+01 0.46258557617E+01 0.39552799776E+01 0.34670148245E+01 0.31273837574E+01
 0.28998864474E+01 0.27584663819E+01 0.26900293520E+01 0.26901111058E+01 0.27585555625E+01
 0.28998170524E+01 0.31272984347E+01 0.34670768141E+01 0.39553593768E+01 0.46257897747E+01
 0.54880638502E+01 0.65074568934E+01 0.76318529983E+01 0.88437618500E+01 0.10024395973E+02
 0.10978108053E+02 0.11513078192E+02 0.11513032239E+02 0.10978072753E+02 0.10024453922E+02
 0.88437769195E+01 0.76317393188E+01 0.48880127019E+01 0.42941028805E+01 0.38198066189E+01
 0.34634972318E+01 0.32059322326E+01 0.30238289842E+01 0.28999000454E+01 0.28262319314E+01
 0.28015446870E+01 0.28262109157E+01 0.28998545910E+01 0.30237625938E+01 0.32058751673E+01
 0.34634941515E+01 0.38198697643E+01 0.42941793194E+01 0.48880333593E+01 0.55744380760E+01
 0.62956756897E+01 0.69774198676E+01 0.75577854376E+01 0.79569127447E+01 0.80999321429E+01
 0.79568595239E+01 0.75577154886E+01 0.69773847461E+01 0.62956960402E+01 0.55744704262E+01
 0.39857006242E+01 0.36957527637E+01 0.34764290840E+01 0.33180584335E+01 0.32058922745E+01
 0.31273404143E+01 0.30757167460E+01 0.30496022821E+01 0.30496211877E+01 0.30757391464E+01
 0.31273260844E+01 0.32058649527E+01 0.33180606817E+01 0.34764458534E+01 0.36957486070E+01
 0.39856878631E+01 0.43431227745E+01 0.47471957298E+01 0.51599282844E+01 0.55324632644E+01
 0.58150127119E+01 0.59674125786E+01 0.59674071532E+01 0.58150085126E+01 0.55324688055E+01
 0.51599268162E+01 0.47471789842E+01 0.43431153922E+01 0.35998534521E+01 0.35183761973E+01
 0.34764978962E+01 0.34634873498E+01 0.34669729451E+01 0.34764963337E+01 0.34848724409E+01
 0.34881021543E+01 0.34849238000E+01 0.34765884519E+01 0.34670479175E+01 0.34634801899E+01
 0.34764255446E+01 0.35183119592E+01 0.35998286939E+01 0.37252919940E+01 0.38892810403E+01
 0.40762311701E+01 0.42629437803E+01 0.44228419099E+01 0.45309849471E+01 0.45693136706E+01
 0.45311151192E+01 0.44229541449E+01 0.42629457304E+01 0.40761743644E+01 0.38892445107E+01
 0.37252879281E+01 0.35998395897E+01 0.36957847845E+01 0.38198854272E+01 0.39553269700E+01
 0.40819957464E+01 0.41801206720E+01 0.42337098901E+01 0.42337116230E+01 0.41801226592E+01
 0.40819940358E+01 0.39553220371E+01 0.38198709268E+01 0.36957568576E+01 0.35998173446E+01
 0.35420311258E+01 0.35233830271E+01 0.35366218598E+01 0.35695582384E+01 0.36088503272E+01
 0.36426153631E+01 0.36619211528E+01 0.36619154467E+01 0.36426177166E+01 0.36088792030E+01
 0.35695876258E+01 0.35366180053E+01 0.35233570017E+01 0.35420233768E+01 0.39856804568E+01
 0.42941274934E+01 0.46257915149E+01 0.49446683414E+01 0.52104056995E+01 0.53866105883E+01
 0.54482648112E+01 0.53865232069E+01 0.52102946785E+01 0.49446079690E+01 0.46258074645E+01
 0.42941811885E+01 0.39857184224E+01 0.37253045330E+01 0.35233620554E+01 0.33770210863E+01
 0.32753031459E+01 0.32058209488E+01 0.31596489073E+01 0.31325638002E+01 0.31235055029E+01
 0.31324697247E+01 0.31595531669E+01 0.32057965144E+01 0.32753376244E+01 0.33770622315E+01
 0.35233842945E+01 0.37253001185E+01 0.48880318017E+01 0.54880950091E+01 0.60847439098E+01
 0.66093777968E+01 0.70043459095E+01 0.72195176441E+01 0.72195218135E+01 0.70043541452E+01
 0.66093856424E+01 0.60847500553E+01 0.54880982489E+01 0.48880306049E+01 0.43431165787E+01
 0.38892946705E+01 0.35366209009E+01 0.32752805214E+01 0.30866127481E+01 0.29535541233E+01
 0.28663743589E+01 0.28224987362E+01 0.28224942731E+01 0.28663626654E+01 0.29535382622E+01
 0.30865937268E+01 0.32752626312E+01 0.35366135783E+01 0.38892977866E+01 0.43431215879E+01
 0.65074675586E+01 0.74800848125E+01 0.84492871528E+01 0.93019933139E+01 0.98918674563E+01
 0.10103006357E+02 0.98919999738E+01 0.93021163899E+01 0.84493108721E+01 0.74800485842E+01
 0.65074289580E+01 0.55744665211E+01 0.47471738778E+01 0.40761883838E+01 0.35695711919E+01
 0.32058516427E+01 0.29535394244E+01 0.27864402008E+01 0.26896881588E+01 0.26577847912E+01
 0.26897152644E+01 0.27865058921E+01 0.29535979963E+01 0.32058331863E+01 0.35694912569E+01
 0.40761301232E+01 0.47471773712E+01 0.55744991529E+01 0.92096005685E+01 0.10949919333E+02
 0.12622321162E+02 0.13942905757E+02 0.14670435632E+02 0.14670330337E+02 0.13942805617E+02
 0.12622426936E+02 0.10950003973E+02 0.92094751870E+01 0.76317578539E+01 0.62957372474E+01
 0.51599923578E+01 0.42628698085E+01 0.36087925224E+01 0.31597309170E+01 0.28664316834E+01
 0.26896126223E+01 0.26062075048E+01 0.26063449010E+01 0.26897544855E+01 0.28662970949E+01
 0.31595812883E+01 0.36089166185E+01 0.42630228324E+01 0.51598802958E+01 0.62955740377E+01
 0.76318344633E+01 0.14085731198E+02 0.16951685255E+02 0.19409866166E+02 0.21061568403E+02
 0.21642568546E+02 0.21061493025E+02 0.19409779081E+02 0.16951644694E+02 0.14085747655E+02
 0.11260942878E+02 0.88436481604E+01 0.69774248759E+01 0.55326221414E+01 0.44228475053E+01
 0.36424620444E+01 0.31325669393E+01 0.28226500118E+01 0.26577469175E+01 0.26061298299E+01
 0.26577396419E+01 0.28226022264E+01 0.31324965438E+01 0.36424399148E+01 0.44229000094E+01
 0.55326875614E+01 0.69774350306E+01 0.88436071211E+01 0.11260891996E+02 0.21906308163E+02
 0.25878973567E+02 0.28884062839E+02 0.30497516393E+02 0.30497766982E+02 0.28884346472E+02
 0.25878806728E+02 0.21906109157E+02 0.17544029055E+02 0.13416832973E+02 0.10024305159E+02
 0.75576653423E+01 0.58151286530E+01 0.45311120401E+01 0.36617934189E+01 0.31233646348E+01
 0.28226164099E+01 0.26898432091E+01 0.26895690728E+01 0.28223311284E+01 0.31236309635E+01
 0.36621017307E+01 0.45308806148E+01 0.58148134600E+01 0.75578476978E+01 0.10024591544E+02
 0.13416697202E+02 0.17543841309E+02 0.32636499186E+02 0.37401757265E+02 0.40534932120E+02
 0.41627438787E+02 0.40535103822E+02 0.37401984112E+02 0.32636612485E+02 0.26858644655E+02
 0.20829900109E+02 0.15335039570E+02 0.10978073492E+02 0.79567599598E+01 0.59673964231E+01
 0.45694509154E+01 0.36619205274E+01 0.31323174567E+01 0.28663528981E+01 0.27866859231E+01
 0.28663638738E+01 0.31323490512E+01 0.36619764186E+01 0.45694964598E+01 0.59673672203E+01
 0.79566582309E+01 0.10978010174E+02 0.15335120412E+02 0.20830070366E+02 0.26858723379E+02
 0.45710104701E+02 0.50885765528E+02 0.53676343515E+02 0.53676407853E+02 0.50885964574E+02
 0.45710329189E+02 0.38834497823E+02 0.31094171401E+02 0.23405006511E+02 0.16661558967E+02
 0.11513079611E+02 0.80998922782E+01 0.59673784588E+01 0.45311468215E+01 0.36426564752E+01
 0.31595320856E+01 0.29535009127E+01 0.29536275929E+01 0.31596778517E+01 0.36425503781E+01
 0.45309681533E+01 0.59674029482E+01 0.81000006301E+01 0.11513035265E+02 0.16661480029E+02
 0.23405121338E+02 0.31094358181E+02 0.38834475780E+02 0.60515655696E+02 0.65722704210E+02
 0.67571817231E+02 0.65722844489E+02 0.60515824709E+02 0.52801745813E+02 0.43609928343E+02
 0.33952835714E+02 0.24820119362E+02 0.17135616712E+02 0.11512951660E+02 0.79568638550E+01
 0.58151439143E+01 0.44229707398E+01 0.36087603833E+01 0.32057989763E+01 0.30867194161E+01
 0.32058043626E+01 0.36087358294E+01 0.44228993322E+01 0.58150570100E+01 0.79568113428E+01
 0.11512956709E+02 0.17135675314E+02 0.24820214065E+02 0.33952931632E+02 0.43609962813E+02
 0.52801664570E+02 0.76430627959E+02 0.81067406518E+02 0.81066915803E+02 0.76430158403E+02
 0.68142578925E+02 0.57633531045E+02 0.46219939227E+02 0.34962998602E+02 0.24820251248E+02
 0.16661818276E+02 0.10977878136E+02 0.75574847988E+01 0.55327020549E+01 0.42631970961E+01
 0.35693578312E+01 0.32750886662E+01 0.32755020764E+01 0.35697410815E+01 0.42627336416E+01
 0.55323085891E+01 0.75579650062E+01 0.10978255265E+02 0.16661285787E+02 0.24819861180E+02
 0.34963609283E+02 0.46220443203E+02 0.57632966084E+02 0.68142020338E+02 0.92219212464E+02
 0.95215046068E+02 0.92219157040E+02 0.84005740871E+02 0.72412594440E+02 0.59356035483E+02
 0.46220267707E+02 0.33952418053E+02 0.23405101749E+02 0.15335521863E+02 0.10024429449E+02
 0.69768204287E+01 0.51599131185E+01 0.40767352801E+01 0.35366339938E+01 0.33765020972E+01
 0.35366097889E+01 0.40767338251E+01 0.51599556413E+01 0.69768785771E+01 0.10024472966E+02
 0.15335544083E+02 0.23405092300E+02 0.33952367905E+02 0.46220204914E+02 0.59356019420E+02
 0.72412647590E+02 0.84005822448E+02 0.10550406181E+03 0.10550515476E+03 0.98647142200E+02
 0.86765532288E+02 0.72412004591E+02 0.57633768813E+02 0.43610750616E+02 0.31093854817E+02
 0.20829464537E+02 0.13417260989E+02 0.88442867138E+01 0.62951573468E+01 0.47466479560E+01
 0.38897810474E+01 0.35239041357E+01 0.35228666663E+01 0.38887634351E+01 0.47477159638E+01
 0.62961789765E+01 0.88432192064E+01 0.13416287714E+02 0.20830616478E+02 0.31094866556E+02
 0.43609541694E+02 0.57632663564E+02 0.72413189052E+02 0.86766716024E+02 0.98646079704E+02
 0.11324655659E+03 0.10930648108E+03 0.98647512188E+02 0.84006394268E+02 0.68141371413E+02
 0.52801664191E+02 0.38835404401E+02 0.26858882012E+02 0.17543083494E+02 0.11260890939E+02
 0.76326587712E+01 0.55744743780E+01 0.43422467293E+01 0.37253022012E+01 0.35429054368E+01
 0.37253022012E+01 0.43422467293E+01 0.55744743780E+01 0.76326587712E+01 0.11260890939E+02
 0.17543083494E+02 0.26858882012E+02 0.38835404401E+02 0.52801664191E+02 0.68141371413E+02
 0.84006394268E+02 0.98647512188E+02 0.10930648108E+03 0.10192843566E+03 0.92218413196E+02
 0.78783823749E+02 0.64072255876E+02 0.49694564245E+02 0.36525716055E+02 0.25247869318E+02
 0.16535219146E+02 0.10708469626E+02 0.73487940475E+01 0.54034435223E+01 0.42385795541E+01
 0.36547793072E+01 0.34812964171E+01 0.36547885145E+01 0.42385899939E+01 0.54034456472E+01
 0.73487853203E+01 0.10708455920E+02 0.16535210154E+02 0.25247868704E+02 0.36525717215E+02
 0.49694552598E+02 0.64072219504E+02 0.78783765796E+02 0.92218351041E+02 0.10192839516E+03
 0.10550536240E+03 0.92219629796E+02 0.81066645101E+02 0.67571448215E+02 0.53676864456E+02
 0.40535556794E+02 0.28883788892E+02 0.19409455065E+02 0.12622720560E+02 0.84497379622E+01
 0.60843611524E+01 0.46253604422E+01 0.38202599284E+01 0.34768834910E+01 0.34760214538E+01
 0.38194274474E+01 0.46262682937E+01 0.60851949936E+01 0.84488103622E+01 0.12621920987E+02
 0.19410476840E+02 0.28884642883E+02 0.40534463366E+02 0.53675846776E+02 0.67572398991E+02
 0.81067609926E+02 0.92218687650E+02 0.98646137087E+02 0.98647084818E+02 0.78784303950E+02
 0.67571908774E+02 0.55063623826E+02 0.42657556054E+02 0.31257403816E+02 0.21596734188E+02