   1   1   0   0
  0.1853788E+02  0.2970697E-09  0.2970697E-09  0.2970697E-09  0.5000000E-15
  1.000000000000000E-004
  CAR 
 unknown system                          
     29.12733299     -1.01394556  301      6.40654764      1.00000000
     -1.014  0.0000E+00  0.0000E+00
     -0.913  0.0000E+00  0.0000E+00
     -0.813  0.0000E+00  0.0000E+00
     -0.713 -0.2934E-33 -0.2948E-34
     -0.612 -0.1089E-29 -0.1094E-30
     -0.512 -0.2431E-26 -0.2444E-27
     -0.411 -0.3261E-23 -0.3278E-24
     -0.311 -0.2626E-20 -0.2642E-21
     -0.210 -0.1269E-17 -0.1277E-18
     -0.110 -0.3551E-15 -0.3580E-16
     -0.009 -0.6103E-13 -0.6167E-14
      0.091 -0.6241E-11 -0.6332E-12
      0.192 -0.3779E-09 -0.3860E-10
      0.292 -0.1344E-07 -0.1389E-08
      0.393 -0.2769E-06 -0.2921E-07
      0.493 -0.3220E-05 -0.3527E-06
      0.594 -0.1989E-04 -0.2351E-05
      0.694 -0.5361E-04 -0.7737E-05
      0.795  0.1475E-04 -0.6255E-05
      0.895  0.3975E-03  0.3368E-04
      0.995  0.8378E-03  0.1179E-03
      1.096  0.9674E-03  0.2151E-03
      1.196  0.1599E-02  0.3757E-03
      1.297  0.2788E-02  0.6559E-03
      1.397  0.2899E-02  0.9471E-03
      1.498  0.2545E-02  0.1203E-02
      1.598  0.2872E-02  0.1491E-02
      1.699  0.2948E-02  0.1788E-02
      1.799  0.3281E-02  0.2117E-02
      1.900  0.4053E-02  0.2524E-02
      2.000  0.4811E-02  0.3008E-02
      2.101  0.6426E-02  0.3653E-02
      2.201  0.6970E-02  0.4354E-02
      2.302  0.4764E-02  0.4832E-02
      2.402  0.2960E-02  0.5130E-02
      2.503  0.5565E-02  0.5689E-02
      2.603  0.1267E-01  0.6962E-02
      2.703  0.2330E-01  0.9303E-02
      2.804  0.3691E-01  0.1301E-01
      2.904  0.5068E-01  0.1810E-01
      3.005  0.6610E-01  0.2474E-01
      3.105  0.8600E-01  0.3338E-01
      3.206  0.9967E-01  0.4340E-01
      3.306  0.9717E-01  0.5316E-01
      3.407  0.8910E-01  0.6211E-01
      3.507  0.8348E-01  0.7050E-01
      3.608  0.7483E-01  0.7802E-01
      3.708  0.6473E-01  0.8452E-01
      3.809  0.6585E-01  0.9114E-01
      3.909  0.7527E-01  0.9870E-01
      4.010  0.7789E-01  0.1065E+00
      4.110  0.7554E-01  0.1141E+00
      4.211  0.7688E-01  0.1218E+00
      4.311  0.8413E-01  0.1303E+00
      4.411  0.9557E-01  0.1399E+00
      4.512  0.1086E+00  0.1508E+00
      4.612  0.1216E+00  0.1630E+00
      4.713  0.1287E+00  0.1760E+00
      4.813  0.1186E+00  0.1879E+00
      4.914  0.9718E-01  0.1976E+00
      5.014  0.8483E-01  0.2062E+00
      5.115  0.8131E-01  0.2143E+00
      5.215  0.7493E-01  0.2219E+00
      5.316  0.7628E-01  0.2295E+00
      5.416  0.9316E-01  0.2389E+00
      5.517  0.1042E+00  0.2493E+00
      5.617  0.9524E-01  0.2589E+00
      5.718  0.8585E-01  0.2675E+00
      5.818  0.8446E-01  0.2760E+00
      5.919  0.7937E-01  0.2840E+00
      6.019  0.7973E-01  0.2920E+00
      6.119  0.9069E-01  0.3011E+00
      6.220  0.1043E+00  0.3116E+00
      6.320  0.1178E+00  0.3234E+00
      6.421  0.1132E+00  0.3348E+00
      6.521  0.8192E-01  0.3430E+00
      6.622  0.4573E-01  0.3476E+00
      6.722  0.2023E-01  0.3497E+00
      6.823  0.6935E-02  0.3504E+00
      6.923  0.3651E-02  0.3507E+00
      7.024  0.4658E-02  0.3512E+00
      7.124  0.5372E-02  0.3517E+00
      7.225  0.6410E-02  0.3524E+00
      7.325  0.1047E-01  0.3534E+00
      7.426  0.1521E-01  0.3550E+00
      7.526  0.1452E-01  0.3564E+00
      7.627  0.1064E-01  0.3575E+00
      7.727  0.9412E-02  0.3584E+00
      7.827  0.7104E-02  0.3592E+00
      7.928  0.1960E-02  0.3594E+00
      8.028 -0.2145E-03  0.3593E+00
      8.129  0.4672E-02  0.3598E+00
      8.229  0.1581E-01  0.3614E+00
      8.330  0.2361E-01  0.3638E+00
      8.430  0.1892E-01  0.3657E+00
      8.531  0.9709E-02  0.3666E+00
      8.631  0.6284E-02  0.3673E+00
      8.732  0.6349E-02  0.3679E+00
      8.832  0.6511E-02  0.3686E+00
      8.933  0.6032E-02  0.3692E+00
      9.033  0.5419E-02  0.3697E+00
      9.134  0.7669E-02  0.3705E+00
      9.234  0.1135E-01  0.3716E+00
      9.335  0.1191E-01  0.3728E+00
      9.435  0.8857E-02  0.3737E+00
      9.536  0.7614E-02  0.3745E+00
      9.636  0.1403E-01  0.3759E+00
      9.736  0.2160E-01  0.3781E+00
      9.837  0.1799E-01  0.3799E+00
      9.937  0.6751E-02  0.3805E+00
     10.038  0.1142E-02  0.3807E+00
     10.138  0.3436E-02  0.3810E+00
     10.239  0.5510E-02  0.3815E+00
     10.339  0.3045E-02  0.3819E+00
     10.440  0.2517E-02  0.3821E+00
     10.540  0.1044E-01  0.3832E+00
     10.641  0.2046E-01  0.3852E+00
     10.741  0.2016E-01  0.3872E+00
     10.842  0.9957E-02  0.3882E+00
     10.942  0.1886E-02  0.3884E+00
     11.043  0.1613E-02  0.3886E+00
     11.143  0.5780E-02  0.3892E+00
     11.244  0.9968E-02  0.3902E+00
     11.344  0.1087E-01  0.3913E+00
     11.444  0.8808E-02  0.3921E+00
     11.545  0.5966E-02  0.3927E+00
     11.645  0.4449E-02  0.3932E+00
     11.746  0.5511E-02  0.3937E+00
     11.846  0.5760E-02  0.3943E+00
     11.947  0.3766E-02  0.3947E+00
     12.047  0.2337E-02  0.3949E+00
     12.148  0.5024E-02  0.3954E+00
     12.248  0.1474E-01  0.3969E+00
     12.349  0.2301E-01  0.3992E+00
     12.449  0.1883E-01  0.4011E+00
     12.550  0.1065E-01  0.4022E+00
     12.650  0.8467E-02  0.4031E+00
     12.751  0.8058E-02  0.4039E+00
     12.851  0.8686E-02  0.4047E+00
     12.952  0.1254E-01  0.4060E+00
     13.052  0.1513E-01  0.4075E+00
     13.152  0.1249E-01  0.4088E+00
     13.253  0.8236E-02  0.4096E+00
     13.353  0.8774E-02  0.4105E+00
     13.454  0.1526E-01  0.4120E+00
     13.554  0.2001E-01  0.4140E+00
     13.655  0.1470E-01  0.4155E+00
     13.755  0.4515E-02  0.4160E+00
     13.856  0.2554E-03  0.4160E+00
     13.956  0.3287E-02  0.4163E+00
     14.057  0.8947E-02  0.4172E+00
     14.157  0.1477E-01  0.4187E+00
     14.258  0.1761E-01  0.4205E+00
     14.358  0.1355E-01  0.4218E+00
     14.459  0.8495E-02  0.4227E+00
     14.559  0.9104E-02  0.4236E+00
     14.660  0.1182E-01  0.4248E+00
     14.760  0.1262E-01  0.4260E+00
     14.860  0.1007E-01  0.4271E+00
     14.961  0.5339E-02  0.4276E+00
     15.061  0.4049E-02  0.4280E+00
     15.162  0.8011E-02  0.4288E+00
     15.262  0.1514E-01  0.4303E+00
     15.363  0.2154E-01  0.4325E+00
     15.463  0.1880E-01  0.4344E+00
     15.564  0.9221E-02  0.4353E+00
     15.664  0.9501E-02  0.4363E+00
     15.765  0.2378E-01  0.4386E+00
     15.865  0.3245E-01  0.4419E+00
     15.966  0.2293E-01  0.4442E+00
     16.066  0.1053E-01  0.4453E+00
     16.167  0.9360E-02  0.4462E+00
     16.267  0.1299E-01  0.4475E+00
     16.368  0.1179E-01  0.4487E+00
     16.468  0.7613E-02  0.4495E+00
     16.568  0.7987E-02  0.4503E+00
     16.669  0.1335E-01  0.4516E+00
     16.769  0.1950E-01  0.4536E+00
     16.870  0.2330E-01  0.4559E+00
     16.970  0.2189E-01  0.4581E+00
     17.071  0.1695E-01  0.4598E+00
     17.171  0.1075E-01  0.4609E+00
     17.272  0.6111E-02  0.4615E+00
     17.372  0.8225E-02  0.4623E+00
     17.473  0.1822E-01  0.4642E+00
     17.573  0.2942E-01  0.4671E+00
     17.674  0.3047E-01  0.4702E+00
     17.774  0.2075E-01  0.4723E+00
     17.875  0.1449E-01  0.4737E+00
     17.975  0.1394E-01  0.4751E+00
     18.076  0.8999E-02  0.4760E+00
     18.176  0.4979E-02  0.4765E+00
     18.276  0.1334E-01  0.4779E+00
     18.377  0.2987E-01  0.4809E+00
     18.477  0.3758E-01  0.4846E+00
     18.578  0.2914E-01  0.4876E+00
     18.678  0.1705E-01  0.4893E+00
     18.779  0.1263E-01  0.4906E+00
     18.879  0.1503E-01  0.4921E+00
     18.980  0.1877E-01  0.4940E+00
     19.080  0.1993E-01  0.4960E+00
     19.181  0.1634E-01  0.4976E+00
     19.281  0.1055E-01  0.4987E+00
     19.382  0.8036E-02  0.4995E+00
     19.482  0.9316E-02  0.5004E+00
     19.583  0.1575E-01  0.5020E+00
     19.683  0.2655E-01  0.5046E+00
     19.784  0.3083E-01  0.5077E+00
     19.884  0.2437E-01  0.5102E+00
     19.984  0.1872E-01  0.5121E+00
     20.085  0.2098E-01  0.5142E+00
     20.185  0.2440E-01  0.5166E+00
     20.286  0.2294E-01  0.5189E+00
     20.386  0.1711E-01  0.5207E+00
     20.487  0.1144E-01  0.5218E+00
     20.587  0.1100E-01  0.5229E+00
     20.688  0.1609E-01  0.5245E+00
     20.788  0.2385E-01  0.5269E+00
     20.889  0.2776E-01  0.5297E+00
     20.989  0.2252E-01  0.5320E+00
     21.090  0.1276E-01  0.5333E+00
     21.190  0.6979E-02  0.5340E+00
     21.291  0.5988E-02  0.5346E+00
     21.391  0.8624E-02  0.5354E+00
     21.492  0.1767E-01  0.5372E+00
     21.592  0.2684E-01  0.5399E+00
     21.692  0.2681E-01  0.5426E+00
     21.793  0.1959E-01  0.5446E+00
     21.893  0.1255E-01  0.5458E+00
     21.994  0.1052E-01  0.5469E+00
     22.094  0.1346E-01  0.5482E+00
     22.195  0.1717E-01  0.5500E+00
     22.295  0.1898E-01  0.5519E+00
     22.396  0.2055E-01  0.5539E+00
     22.496  0.2349E-01  0.5563E+00
     22.597  0.2631E-01  0.5589E+00
     22.697  0.2591E-01  0.5615E+00
     22.798  0.1957E-01  0.5635E+00
     22.898  0.1002E-01  0.5645E+00
     22.999  0.6707E-02  0.5652E+00
     23.099  0.1329E-01  0.5665E+00
     23.200  0.2225E-01  0.5687E+00
     23.300  0.2446E-01  0.5712E+00
     23.400  0.2039E-01  0.5733E+00
     23.501  0.1597E-01  0.5749E+00
     23.601  0.1182E-01  0.5760E+00
     23.702  0.8652E-02  0.5769E+00
     23.802  0.1167E-01  0.5781E+00
     23.903  0.1824E-01  0.5799E+00
     24.003  0.1790E-01  0.5817E+00
     24.104  0.1012E-01  0.5827E+00
     24.204  0.3200E-02  0.5831E+00
     24.305  0.1639E-02  0.5832E+00
     24.405  0.5521E-02  0.5838E+00
     24.506  0.1255E-01  0.5850E+00
     24.606  0.1771E-01  0.5868E+00
     24.707  0.1766E-01  0.5886E+00
     24.807  0.1656E-01  0.5903E+00
     24.908  0.1618E-01  0.5919E+00
     25.008  0.1114E-01  0.5930E+00
     25.108  0.3356E-02  0.5933E+00
     25.209 -0.4116E-03  0.5933E+00
     25.309 -0.3348E-03  0.5933E+00
     25.410  0.6651E-03  0.5933E+00
     25.510  0.3107E-02  0.5936E+00
     25.611  0.8056E-02  0.5945E+00
     25.711  0.1151E-01  0.5956E+00
     25.812  0.8868E-02  0.5965E+00
     25.912  0.3428E-02  0.5968E+00
     26.013  0.2728E-02  0.5971E+00
     26.113  0.7293E-02  0.5979E+00
     26.214  0.8995E-02  0.5988E+00
     26.314  0.4752E-02  0.5992E+00
     26.415  0.9057E-03  0.5993E+00
     26.515  0.4316E-03  0.5994E+00
     26.616  0.7738E-03  0.5994E+00
     26.716  0.8159E-03  0.5995E+00
     26.817  0.9577E-03  0.5996E+00
     26.917  0.8453E-03  0.5997E+00
     27.017  0.6570E-03  0.5998E+00
     27.118  0.9039E-03  0.5999E+00
     27.218  0.9490E-03  0.6000E+00
     27.319  0.4411E-03  0.6000E+00
     27.419  0.2199E-04  0.6000E+00
     27.520 -0.5298E-04  0.6000E+00
     27.620 -0.1986E-04  0.6000E+00
     27.721 -0.3219E-05  0.6000E+00
     27.821 -0.2769E-06  0.6000E+00
     27.922 -0.1344E-07  0.6000E+00
     28.022 -0.3779E-09  0.6000E+00
     28.123 -0.6241E-11  0.6000E+00
     28.223 -0.6103E-13  0.6000E+00
     28.324 -0.3551E-15  0.6000E+00
     28.424 -0.1151E-17  0.6000E+00
     28.525  0.0000E+00  0.6000E+00
     28.625  0.0000E+00  0.6000E+00
     28.725  0.0000E+00  0.6000E+00
     28.826  0.0000E+00  0.6000E+00
     28.926  0.0000E+00  0.6000E+00
     29.027  0.0000E+00  0.6000E+00
     29.127  0.0000E+00  0.6000E+00
