    1    1   30    1
  0.1853788E+02  0.2970697E-09  0.2970697E-09  0.2970697E-09  0.5000000E-15
  1.000000000000000E-004
  CAR 
 unknown system                          
     10     60      9
 
  0.6250000E-01  0.6250000E-01  0.6250000E-01  0.3906250E-02
    1        0.986054
    2        4.407539
    3        4.474900
    4        4.474900
    5        5.531978
    6        5.531978
    7       23.287081
    8       25.801428
    9       26.803633
 
  0.1875000E+00  0.6250000E-01  0.6250000E-01  0.1171875E-01
    1        1.574925
    2        4.250663
    3        4.625112
    4        4.643540
    5        5.388562
    6        5.616529
    7       22.640671
    8       23.840646
    9       26.118832
 
  0.3125000E+00  0.6250000E-01  0.6250000E-01  0.1171875E-01
    1        2.562553
    2        4.425595
    3        4.670512
    4        4.685969
    5        5.558089
    6        6.011410
    7       18.361426
    8       23.356485
    9       25.623847
 
  0.4375000E+00  0.6250000E-01  0.6250000E-01  0.1171875E-01
    1        2.755186
    2        4.446481
    3        4.526454
    4        5.737200
    5        6.085749
    6        7.094794
    7       14.126452
    8       22.694614
    9       24.542616
 
 -0.4375000E+00  0.6250000E-01  0.6250000E-01  0.1171875E-01
    1        2.719666
    2        4.372079
    3        4.482365
    4        6.005814
    5        6.371576
    6        8.234880
    7       12.235523
    8       22.520594
    9       24.636048
 
 -0.3125000E+00  0.6250000E-01  0.6250000E-01  0.1171875E-01
    1        2.756729
    2        4.484415
    3        4.599346
    4        5.242303
    5        6.171039
    6        6.432803
    7       15.447577
    8       23.077083
    9       24.873938
 
 -0.1875000E+00  0.6250000E-01  0.6250000E-01  0.1171875E-01
    1        2.275006
    2        4.235977
    3        4.683063
    4        4.716439
    5        5.515899
    6        5.757299
    7       19.857576
    8       23.904601
    9       25.592264
 
 -0.6250000E-01  0.6250000E-01  0.6250000E-01  0.1171875E-01
    1        1.289705
    2        4.288649
    3        4.581369
    4        4.585156
    5        5.407117
    6        5.596846
    7       23.325973
    8       24.709167
    9       26.138606
 
  0.1875000E+00  0.1875000E+00  0.6250000E-01  0.1171875E-01
    1        1.856674
    2        4.058019
    3        4.781560
    4        4.798839
    5        5.241685
    6        5.717892
    7       22.941963
    8       24.065527
    9       24.822065
 
  0.3125000E+00  0.1875000E+00  0.6250000E-01  0.2343750E-01
    1        2.744963
    2        3.852536
    3        4.653063
    4        5.064213
    5        5.514007
    6        6.098404
    7       20.258646
    8       22.125917
    9       24.619509
 
  0.4375000E+00  0.1875000E+00  0.6250000E-01  0.2343750E-01
    1        3.124509
    2        4.248742
    3        4.480537
    4        4.972496
    5        6.159513
    6        7.463345
    7       15.810463
    8       21.662856
    9       22.751435
 
 -0.4375000E+00  0.1875000E+00  0.6250000E-01  0.2343750E-01
    1        3.089678
    2        4.120990
    3        4.813740
    4        5.115246
    5        6.327599
    6        9.708445
    7       12.356983
    8       21.230245
    9       22.087852
 
 -0.3125000E+00  0.1875000E+00  0.6250000E-01  0.2343750E-01
    1        3.167627
    2        4.218319
    3        4.750519
    4        4.944509
    5        6.014960
    6        8.308393
    7       14.508300
    8       20.575639
    9       23.198597
 
 -0.1875000E+00  0.1875000E+00  0.6250000E-01  0.2343750E-01
    1        3.058715
    2        3.993546
    3        4.523902
    4        5.036827
    5        5.398190
    6        6.639216
    7       18.779835
    8       20.782904
    9       24.914754
 
 -0.6250000E-01  0.1875000E+00  0.6250000E-01  0.2343750E-01
    1        2.103129
    2        4.088868
    3        4.717983
    4        4.798769
    5        5.310108
    6        5.798207
    7       21.479379
    8       23.117677
    9       25.720713
 
  0.3125000E+00  0.3125000E+00  0.6250000E-01  0.1171875E-01
    1        3.002140
    2        3.472731
    3        5.129915
    4        5.468427
    5        5.946690
    6        6.061399
    7       20.578359
    8       21.573514
    9       22.259747
 
  0.4375000E+00  0.3125000E+00  0.6250000E-01  0.2343750E-01
    1        3.159260
    2        3.365573
    3        5.060935
    4        5.762846
    5        6.208335
    6        7.720874
    7       17.940532
    8       19.692119
    9       19.966300
 
 -0.4375000E+00  0.3125000E+00  0.6250000E-01  0.2343750E-01
    1        3.243894
    2        3.684239
    3        4.790249
    4        5.514840
    5        6.379820
    6       10.565117
    7       13.997502
    8       17.934400
    9       20.105502
 
 -0.3125000E+00  0.3125000E+00  0.6250000E-01  0.2343750E-01
    1        3.555725
    2        3.986147
    3        4.394846
    4        5.340296
    5        6.039907
    6       10.712543
    7       14.254500
    8       16.659561
    9       21.542067
 
 -0.1875000E+00  0.3125000E+00  0.6250000E-01  0.2343750E-01
    1        3.580456
    2        4.096406
    3        4.267396
    4        5.179938
    5        5.683537
    6        8.315113
    7       16.343662
    8       18.422415
    9       23.263194
 
 -0.6250000E-01  0.3125000E+00  0.6250000E-01  0.2343750E-01
    1        2.875329
    2        4.454908
    3        4.564922
    4        4.775853
    5        5.808326
    6        6.527018
    7       17.012775
    8       22.569462
    9       24.499692
 
  0.4375000E+00  0.4375000E+00  0.6250000E-01  0.1171875E-01
    1        2.838048
    2        3.016855
    3        6.121445
    4        6.139100
    5        6.411592
    6        8.446302
    7       17.176020
    8       18.434447
    9       19.130335
 
 -0.4375000E+00  0.4375000E+00  0.6250000E-01  0.2343750E-01
    1        2.886810
    2        3.075541
    3        5.785561
    4        6.123770
    5        6.524910
    6       10.596245
    7       15.322824
    8       16.807778
    9       18.396588
 
 -0.3125000E+00  0.4375000E+00  0.6250000E-01  0.2343750E-01
    1        3.198227
    2        3.576201
    3        4.949455
    4        5.698809
    5        6.346674
    6       12.280677
    7       13.563748
    8       15.831149
    9       19.750870
 
 -0.1875000E+00  0.4375000E+00  0.6250000E-01  0.2343750E-01
    1        3.363404
    2        3.967882
    3        4.738418
    4        5.087906
    5        6.214919
    6       10.679124
    7       12.615153
    8       18.942439
    9       21.707905
 
 -0.6250000E-01  0.4375000E+00  0.6250000E-01  0.2343750E-01
    1        2.871794
    2        4.306655
    3        4.613470
    4        5.486027
    5        6.282334
    6        8.280927
    7       13.066002
    8       22.270260
    9       23.473480
 
 -0.4375000E+00 -0.4375000E+00  0.6250000E-01  0.1171875E-01
    1        2.724963
    2        2.914507
    3        6.283156
    4        6.369789
    5        6.538610
    6        9.795230
    7       15.337343
    8       17.888457
    9       18.570152
 
 -0.3125000E+00 -0.4375000E+00  0.6250000E-01  0.2343750E-01
    1        2.999920
    2        3.174961
    3        5.487811
    4        6.042969
    5        6.394168
    6        9.190342
    7       16.855838
    8       17.644567
    9       18.887314
 
 -0.1875000E+00 -0.4375000E+00  0.6250000E-01  0.2343750E-01
    1        3.246049
    2        3.921758
    3        4.593829
    4        5.241238
    5        6.341640
    6        8.861480
    7       14.781098
    8       20.382222
    9       20.777360
 
 -0.3125000E+00 -0.3125000E+00  0.6250000E-01  0.1171875E-01
    1        2.998622
    2        3.210817
    3        5.672180
    4        5.842445
    5        6.242372
    6        6.983422
    7       19.294757
    8       19.771709
    9       20.171809
 
 -0.1875000E+00 -0.3125000E+00  0.6250000E-01  0.2343750E-01
    1        3.172324
    2        3.602879
    3        4.688300
    4        5.399371
    5        5.918072
    6        6.651953
    7       19.059818
    8       20.916910
    9       22.418338
 
 -0.1875000E+00 -0.1875000E+00  0.6250000E-01  0.1171875E-01
    1        2.549540
    2        3.769286
    3        4.882444
    4        5.102976
    5        5.378802
    6        5.879590
    7       21.858964
    8       23.190830
    9       23.878181
 
  0.1875000E+00  0.1875000E+00  0.1875000E+00  0.3906250E-02
    1        1.825485
    2        4.286555
    3        4.643586
    4        4.643586
    5        5.529534
    6        5.529534
    7       21.244651
    8       24.097578
    9       27.127333
 
  0.3125000E+00  0.1875000E+00  0.1875000E+00  0.1171875E-01
    1        2.544819
    2        4.081383
    3        4.679605
    4        4.867297
    5        5.251235
    6        6.122365
    7       20.069692
    8       21.951856
    9       26.147880
 
  0.4375000E+00  0.1875000E+00  0.1875000E+00  0.1171875E-01
    1        3.358492
    2        4.100044
    3        4.484465
    4        5.000836
    5        5.420800
    6        7.355830
    7       17.476695
    8       19.527885
    9       24.851636
 
 -0.4375000E+00  0.1875000E+00  0.1875000E+00  0.1171875E-01
    1        3.243616
    2        4.124545
    3        4.889374
    4        4.930878
    5        6.057728
    6        9.376954
    7       13.428578
    8       19.639740
    9       23.893925
 
 -0.3125000E+00  0.1875000E+00  0.1875000E+00  0.1171875E-01
    1        3.137359
    2        4.083184
    3        4.845117
    4        4.949793
    5        6.402785
    6        9.284164
    7       13.303363
    8       20.702266
    9       22.515516
 
 -0.1875000E+00  0.1875000E+00  0.1875000E+00  0.1171875E-01
    1        3.123697
    2        3.900834
    3        4.575618
    4        5.102974
    5        6.242284
    6        6.834503
    7       17.339557
    8       22.311421
    9       22.417388
 
  0.3125000E+00  0.3125000E+00  0.1875000E+00  0.1171875E-01
    1        2.789806
    2        4.103022
    3        4.585013
    4        4.869581
    5        5.932292
    6        6.012317
    7       18.552922
    8       23.578366
    9       23.881973
 
  0.4375000E+00  0.3125000E+00  0.1875000E+00  0.2343750E-01
    1        3.415718
    2        3.876877
    3        4.320319
    4        5.325064
    5        5.752743
    6        7.430069
    7       17.612329
    8       19.651947
    9       22.722914
 
 -0.4375000E+00  0.3125000E+00  0.1875000E+00  0.2343750E-01
    1        3.722637
    2        3.890069
    3        4.162531
    4        5.424918
    5        6.015572
    6        9.613302
    7       15.379087
    8       17.529128
    9       20.831935
 
 -0.3125000E+00  0.3125000E+00  0.1875000E+00  0.2343750E-01
    1        3.519779
    2        3.805197
    3        4.485574
    4        5.351067
    5        6.304283
    6       11.453695
    7       12.859178
    8       18.414975
    9       19.398229
 
 -0.1875000E+00  0.3125000E+00  0.1875000E+00  0.2343750E-01
    1        3.423975
    2        3.668298
    3        4.474278
    4        5.637165
    5        6.079733
    6        8.628626
    7       16.592575
    8       18.635640
    9       20.273364
 
  0.4375000E+00  0.4375000E+00  0.1875000E+00  0.1171875E-01
    1        3.157119
    2        3.620181
    3        4.885074
    4        5.395306
    5        6.400321
    6        8.141274
    7       16.259990
    8       20.059768
    9       21.023430
 
 -0.4375000E+00  0.4375000E+00  0.1875000E+00  0.2343750E-01
    1        3.282974
    2        3.471387
    3        4.801885
    4        5.815439
    5        6.342528
    6       10.181929
    7       15.781549
    8       17.515808
    9       18.248988
 
 -0.3125000E+00  0.4375000E+00  0.1875000E+00  0.2343750E-01
    1        3.439281
    2        3.805288
    3        4.374223
    4        5.559822
    5        6.518726
    6       12.999634
    7       14.199308
    8       15.779835
    9       17.052393
 
 -0.1875000E+00  0.4375000E+00  0.1875000E+00  0.2343750E-01
    1        3.587064
    2        3.811962
    3        4.255862
    4        5.549343
    5        6.320104
    6       11.241310
    7       14.631148
    8       16.842692
    9       18.459203
 
 -0.4375000E+00 -0.4375000E+00  0.1875000E+00  0.1171875E-01
    1        2.980913
    2        3.272223
    3        5.497071
    4        5.936481
    5        6.419287
    6       11.255207
    7       14.818417
    8       15.796218
    9       19.633628
 
 -0.3125000E+00 -0.4375000E+00  0.1875000E+00  0.2343750E-01
    1        3.167011
    2        3.382825
    3        5.053861
    4        5.827832
    5        6.519989
    6       11.748783
    7       15.113054
    8       15.918860
    9       17.677870
 
 -0.3125000E+00 -0.3125000E+00  0.1875000E+00  0.1171875E-01
    1        3.062807
    2        3.388897
    3        5.260180
    4        5.701090
    5        6.454227
    6        9.734571
    7       15.402872
    8       17.638807
    9       20.109043
 
  0.3125000E+00  0.3125000E+00  0.3125000E+00  0.3906250E-02
    1        2.627475
    2        4.586365
    3        4.586365
    4        5.057056
    5        5.887616
    6        5.887616
    7       16.810623
    8       23.421420
    9       26.514019
 
  0.4375000E+00  0.3125000E+00  0.3125000E+00  0.1171875E-01
    1        3.001003
    2        4.389303
    3        4.724312
    4        4.905844
    5        5.768305
    6        7.260183
    7       15.665877
    8       21.513022
    9       24.363414
 
 -0.4375000E+00  0.3125000E+00  0.3125000E+00  0.1171875E-01
    1        3.588848
    2        4.097673
    3        4.408523
    4        5.156863
    5        5.795773
    6        9.379582
    7       15.233350
    8       17.398054
    9       23.960412
 
 -0.3125000E+00  0.3125000E+00  0.3125000E+00  0.1171875E-01
    1        3.323956
    2        3.845529
    3        4.704702
    4        5.494981
    5        6.155708
    6       11.998539
    7       13.204337
    8       16.108127
    9       21.520477
 
  0.4375000E+00  0.4375000E+00  0.3125000E+00  0.1171875E-01
    1        2.939616
    2        4.307393
    3        4.725622
    4        5.026767
    5        6.354825
    6        7.698709
    7       14.271516
    8       22.528803
    9       23.528361
 
 -0.4375000E+00  0.4375000E+00  0.3125000E+00  0.2343750E-01
    1        3.362940
    2        3.980066
    3        4.623624
    4        5.125748
    5        6.223733
    6        9.734163
    7       13.550711
    8       19.806014
    9       20.955111
 
 -0.3125000E+00  0.4375000E+00  0.3125000E+00  0.2343750E-01
    1        3.508329
    2        3.839318
    3        4.388814
    4        5.495141
    5        6.319647
    6       12.344189
    7       13.464306
    8       16.194229
    9       19.110004
 
 -0.4375000E+00 -0.4375000E+00  0.3125000E+00  0.1171875E-01
    1        3.280858
    2        3.907215
    3        4.744023
    4        5.235472
    5        6.314032
    6       11.064532
    7       12.633898
    8       18.321507
    9       21.848478
 
  0.4375000E+00  0.4375000E+00  0.4375000E+00  0.3906250E-02
    1        2.660669
    2        4.442695
    3        4.442696
    4        6.302631
    5        6.302631
    6        7.256672
    7       12.945137
    8       22.654488
    9       25.366195
 
 -0.4375000E+00  0.4375000E+00  0.4375000E+00  0.1171875E-01
    1        2.922980
    2        4.248886
    3        4.639588
    4        5.489827
    5        6.280563
    6        9.095816
    7       12.300803
    8       21.694587
    9       23.707616
