 vasp.5.3.5 31Mar14 (build Jan 09 2015 16:57:47) complex                        
  
 executed on             LinuxIFC date 2015.03.24  14:25:57
 serial version


--------------------------------------------------------------------------------------------------------


 INCAR:
 POTCAR:    PAW_PBE Pd 04Jan2005                  
 POTCAR:    PAW_PBE Pd 04Jan2005                  
   VRHFIN =Pd : s1 d9                                                           
   LEXCH  = PE                                                                  
   EATOM  =   809.7530 eV,   59.5152 Ry                                         
                                                                                
   TITEL  = PAW_PBE Pd 04Jan2005                                                
   LULTRA =        F    use ultrasoft PP ?                                      
   IUNSCR =        1    unscreen: 0-lin 1-nonlin 2-no                           
   RPACOR =    2.000    partial core radius                                     
   POMASS =  106.420; ZVAL   =   10.000    mass and valenz                      
   RCORE  =    2.600    outmost cutoff radius                                   
   RWIGS  =    2.710; RWIGS  =    1.434    wigner-seitz radius (au A)           
   ENMAX  =  250.925; ENMIN  =  188.194 eV                                      
   ICORE  =        3    local potential                                         
   LCOR   =        T    correct aug charges                                     
   LPAW   =        T    paw PP                                                  
   EAUG   =  416.230                                                            
   DEXC   =    0.000                                                            
   RMAX   =    2.653    core radius for proj-oper                               
   RAUG   =    1.300    factor for augmentation sphere                          
   RDEP   =    2.734    radius for radial grids                                 
   RDEPT  =    2.103    core radius for aug-charge                              
                                                                                
   Atomic configuration                                                         
   12 entries                                                                   
     n  l   j            E        occ.                                          
     1  0  0.50    -24164.6631   2.0000                                         
     2  0  0.50     -3530.9218   2.0000                                         
     2  1  1.50     -3165.6822   6.0000                                         
     3  0  0.50      -639.4577   2.0000                                         
     3  1  1.50      -519.4532   6.0000                                         
     3  2  2.50      -328.9757  10.0000                                         
     4  0  0.50       -88.7014   2.0000                                         
     4  1  1.50       -54.4540   6.0000                                         
     4  2  2.50        -6.6878   9.0000                                         
     5  0  0.50        -4.3543   1.0000                                         
     5  1  0.50        -1.3606   0.0000                                         
     4  3  2.50        -1.3606   0.0000                                         
   Description                                                                  
     l       E           TYP  RCUT    TYP  RCUT                                 
     2     -6.6878251     23  2.400                                             
     2     -8.0484077     23  2.400                                             
     0     -4.3542939     23  2.400                                             
     0      4.3406793     23  2.400                                             
     1     -4.0817478     23  2.600                                             
     1     15.8380318     23  2.600                                             
     3     -4.0817478     23  2.400                                             
  local pseudopotential read in
  partial core-charges read in
  partial kinetic energy density read in
  atomic valenz-charges read in
  non local Contribution for L=           2  read in
    real space projection operators read in
  non local Contribution for L=           2  read in
    real space projection operators read in
  non local Contribution for L=           0  read in
    real space projection operators read in
  non local Contribution for L=           0  read in
    real space projection operators read in
  non local Contribution for L=           1  read in
    real space projection operators read in
  non local Contribution for L=           1  read in
    real space projection operators read in
    PAW grid and wavefunctions read in
 
   number of l-projection  operators is LMAX  =           6
   number of lm-projection operators is LMMAX =          18
 
  PAW_PBE Pd 04Jan2005                  :
 energy of atom  1       EATOM= -809.7530
 kinetic energy error for atom=    0.0269 (will be added to EATOM!!)
 
 
 POSCAR: Pd                                      
  positions in cartesian coordinates
  No initial velocities read in
 exchange correlation table for  LEXCH =        8
   RHO(1)=    0.500       N(1)  =     2000
   RHO(2)=  100.500       N(2)  =     4000

 VTST: version 3.1, (03/28/14)

 CHAIN: initializing optimizer
 
 OPT: Using VASP Conjugate-Gradient optimizer
 CHAIN: Read ICHAIN            0
 
 POSCAR: Pd                                      
  positions in cartesian coordinates
  No initial velocities read in
 


--------------------------------------------------------------------------------------------------------


 ion  position               nearest neighbor table
   1  0.000  0.000  0.000-
 
  LATTYP: Found a face centered cubic cell.
 ALAT       =     4.2012000000
  
  Lattice vectors:
  
 A1 = (   2.9706970091,   0.0000000000,   0.0000000000)
 A2 = (   1.4853485046,   2.5726990768,   0.0000000000)
 A3 = (   1.4853485046,   0.8575663589,   2.4255639509)


Analysis of symmetry for initial positions (statically):
=====================================================================
 Subroutine PRICEL returns:
 Original cell was already a primitive cell.
 

 Routine SETGRP: Setting up the symmetry group for a 
 face centered cubic supercell.


 Subroutine GETGRP returns: Found 48 space group operations
 (whereof 48 operations were pure point group operations)
 out of a pool of 48 trial point group operations.


The static configuration has the point symmetry O_h .


Analysis of symmetry for dynamics (positions and initial velocities):
=====================================================================
 Subroutine PRICEL returns:
 Original cell was already a primitive cell.
 

 Routine SETGRP: Setting up the symmetry group for a 
 face centered cubic supercell.


 Subroutine GETGRP returns: Found 48 space group operations
 (whereof 48 operations were pure point group operations)
 out of a pool of 48 trial point group operations.


The dynamic configuration has the point symmetry O_h .
 
 
 KPOINTS: KPOINTS created by Atomic Simulation Env

Automatic generation of k-mesh.
Space group operators:
 irot       det(A)        alpha          n_x          n_y          n_z        tau_x        tau_y        tau_z
    1     1.000000     0.000000     1.000000     0.000000     0.000000     0.000000     0.000000     0.000000
    2    -1.000000     0.000000     1.000000     0.000000     0.000000     0.000000     0.000000     0.000000
    3     1.000000   120.000000    -0.816497    -0.471405    -0.333333     0.000000     0.000000     0.000000
    4    -1.000000   120.000000    -0.816497    -0.471405    -0.333333     0.000000     0.000000     0.000000
    5     1.000000   120.000000     0.816497     0.471405     0.333333     0.000000     0.000000     0.000000
    6    -1.000000   120.000000     0.816497     0.471405     0.333333     0.000000     0.000000     0.000000
    7     1.000000    90.000000    -0.707107    -0.408248     0.577350     0.000000     0.000000     0.000000
    8    -1.000000    90.000000    -0.707107    -0.408248     0.577350     0.000000     0.000000     0.000000
    9     1.000000   180.000000     1.000000     0.000000     0.000000     0.000000     0.000000     0.000000
   10    -1.000000   180.000000     1.000000     0.000000     0.000000     0.000000     0.000000     0.000000
   11     1.000000    90.000000     0.707107    -0.408248     0.577350     0.000000     0.000000     0.000000
   12    -1.000000    90.000000     0.707107    -0.408248     0.577350     0.000000     0.000000     0.000000
   13     1.000000   180.000000     0.707107     0.408248    -0.577350     0.000000     0.000000     0.000000
   14    -1.000000   180.000000     0.707107     0.408248    -0.577350     0.000000     0.000000     0.000000
   15     1.000000   120.000000     0.816497    -0.471405    -0.333333     0.000000     0.000000     0.000000
   16    -1.000000   120.000000     0.816497    -0.471405    -0.333333     0.000000     0.000000     0.000000
   17     1.000000   120.000000     0.000000    -0.942809     0.333333     0.000000     0.000000     0.000000
   18    -1.000000   120.000000     0.000000    -0.942809     0.333333     0.000000     0.000000     0.000000
   19     1.000000    90.000000     0.707107     0.408248    -0.577350     0.000000     0.000000     0.000000
   20    -1.000000    90.000000     0.707107     0.408248    -0.577350     0.000000     0.000000     0.000000
   21     1.000000    90.000000     0.000000    -0.816497    -0.577350     0.000000     0.000000     0.000000
   22    -1.000000    90.000000     0.000000    -0.816497    -0.577350     0.000000     0.000000     0.000000
   23     1.000000   180.000000     0.500000     0.866025     0.000000     0.000000     0.000000     0.000000
   24    -1.000000   180.000000     0.500000     0.866025     0.000000     0.000000     0.000000     0.000000
   25     1.000000   120.000000     0.000000     0.942809    -0.333333     0.000000     0.000000     0.000000
   26    -1.000000   120.000000     0.000000     0.942809    -0.333333     0.000000     0.000000     0.000000
   27     1.000000   120.000000     0.000000     0.000000    -1.000000     0.000000     0.000000     0.000000
   28    -1.000000   120.000000     0.000000     0.000000    -1.000000     0.000000     0.000000     0.000000
   29     1.000000   179.999999     0.000000    -0.816497    -0.577350     0.000000     0.000000     0.000000
   30    -1.000000   179.999999     0.000000    -0.816497    -0.577350     0.000000     0.000000     0.000000
   31     1.000000    90.000000    -0.707107     0.408248    -0.577350     0.000000     0.000000     0.000000
   32    -1.000000    90.000000    -0.707107     0.408248    -0.577350     0.000000     0.000000     0.000000
   33     1.000000   180.000000     0.500000     0.288675     0.816497     0.000000     0.000000     0.000000
   34    -1.000000   180.000000     0.500000     0.288675     0.816497     0.000000     0.000000     0.000000
   35     1.000000    90.000000     0.000000     0.816497     0.577350     0.000000     0.000000     0.000000
   36    -1.000000    90.000000     0.000000     0.816497     0.577350     0.000000     0.000000     0.000000
   37     1.000000   120.000000    -0.816497     0.471405     0.333333     0.000000     0.000000     0.000000
   38    -1.000000   120.000000    -0.816497     0.471405     0.333333     0.000000     0.000000     0.000000
   39     1.000000   179.999999    -0.707107     0.408248    -0.577350     0.000000     0.000000     0.000000
   40    -1.000000   179.999999    -0.707107     0.408248    -0.577350     0.000000     0.000000     0.000000
   41     1.000000   120.000000     0.000000     0.000000     1.000000     0.000000     0.000000     0.000000
   42    -1.000000   120.000000     0.000000     0.000000     1.000000     0.000000     0.000000     0.000000
   43     1.000000   180.000000     0.000000    -0.577350     0.816497     0.000000     0.000000     0.000000
   44    -1.000000   180.000000     0.000000    -0.577350     0.816497     0.000000     0.000000     0.000000
   45     1.000000   180.000000     0.500000    -0.866025     0.000000     0.000000     0.000000     0.000000
   46    -1.000000   180.000000     0.500000    -0.866025     0.000000     0.000000     0.000000     0.000000
   47     1.000000   179.999999    -0.500000     0.288675     0.816497     0.000000     0.000000     0.000000
   48    -1.000000   179.999999    -0.500000     0.288675     0.816497     0.000000     0.000000     0.000000
 
 Subroutine IBZKPT returns following result:
 ===========================================
 
 Found     60 irreducible k-points:
 
 Following reciprocal coordinates:
            Coordinates               Weight
  0.062500  0.062500  0.062500     96.000000
  0.187500  0.062500  0.062500    288.000000
  0.312500  0.062500  0.062500    288.000000
  0.437500  0.062500  0.062500    288.000000
 -0.437500  0.062500  0.062500    288.000000
 -0.312500  0.062500  0.062500    288.000000
 -0.187500  0.062500  0.062500    288.000000
 -0.062500  0.062500  0.062500    288.000000
  0.187500  0.187500  0.062500    288.000000
  0.312500  0.187500  0.062500    576.000000
  0.437500  0.187500  0.062500    576.000000
 -0.437500  0.187500  0.062500    576.000000
 -0.312500  0.187500  0.062500    576.000000
 -0.187500  0.187500  0.062500    576.000000
 -0.062500  0.187500  0.062500    576.000000
  0.312500  0.312500  0.062500    288.000000
  0.437500  0.312500  0.062500    576.000000
 -0.437500  0.312500  0.062500    576.000000
 -0.312500  0.312500  0.062500    576.000000
 -0.187500  0.312500  0.062500    576.000000
 -0.062500  0.312500  0.062500    576.000000
  0.437500  0.437500  0.062500    288.000000
 -0.437500  0.437500  0.062500    576.000000
 -0.312500  0.437500  0.062500    576.000000
 -0.187500  0.437500  0.062500    576.000000
 -0.062500  0.437500  0.062500    576.000000
 -0.437500 -0.437500  0.062500    288.000000
 -0.312500 -0.437500  0.062500    576.000000
 -0.187500 -0.437500  0.062500    576.000000
 -0.312500 -0.312500  0.062500    288.000000
 -0.187500 -0.312500  0.062500    576.000000
 -0.187500 -0.187500  0.062500    288.000000
  0.187500  0.187500  0.187500     96.000000
  0.312500  0.187500  0.187500    288.000000
  0.437500  0.187500  0.187500    288.000000
 -0.437500  0.187500  0.187500    288.000000
 -0.312500  0.187500  0.187500    288.000000
 -0.187500  0.187500  0.187500    288.000000
  0.312500  0.312500  0.187500    288.000000
  0.437500  0.312500  0.187500    576.000000
 -0.437500  0.312500  0.187500    576.000000
 -0.312500  0.312500  0.187500    576.000000
 -0.187500  0.312500  0.187500    576.000000
  0.437500  0.437500  0.187500    288.000000
 -0.437500  0.437500  0.187500    576.000000
 -0.312500  0.437500  0.187500    576.000000
 -0.187500  0.437500  0.187500    576.000000
 -0.437500 -0.437500  0.187500    288.000000
 -0.312500 -0.437500  0.187500    576.000000
 -0.312500 -0.312500  0.187500    288.000000
  0.312500  0.312500  0.312500     96.000000
  0.437500  0.312500  0.312500    288.000000
 -0.437500  0.312500  0.312500    288.000000
 -0.312500  0.312500  0.312500    288.000000
  0.437500  0.437500  0.312500    288.000000
 -0.437500  0.437500  0.312500    576.000000
 -0.312500  0.437500  0.312500    576.000000
 -0.437500 -0.437500  0.312500    288.000000
  0.437500  0.437500  0.437500     96.000000
 -0.437500  0.437500  0.437500    288.000000
 
 Following cartesian coordinates:
            Coordinates               Weight
  0.021039  0.012147  0.008589     96.000000
  0.063117 -0.012147 -0.008589    288.000000
  0.105194 -0.036440 -0.025767    288.000000
  0.147272 -0.060734 -0.042945    288.000000
 -0.147272  0.109321  0.077302    288.000000
 -0.105194  0.085027  0.060123    288.000000
 -0.063117  0.060734  0.042945    288.000000
 -0.021039  0.036440  0.025767    288.000000
  0.063117  0.036440 -0.025767    288.000000
  0.105194  0.012147 -0.042945    576.000000
  0.147272 -0.012147 -0.060123    576.000000
 -0.147272  0.157908  0.060123    576.000000
 -0.105194  0.133615  0.042945    576.000000
 -0.063117  0.109321  0.025767    576.000000
 -0.021039  0.085027  0.008589    576.000000
  0.105194  0.060734 -0.060123    288.000000
  0.147272  0.036440 -0.077302    576.000000
 -0.147272  0.206495  0.042945    576.000000
 -0.105194  0.182202  0.025767    576.000000
 -0.063117  0.157908  0.008589    576.000000
 -0.021039  0.133615 -0.008589    576.000000
  0.147272  0.085027 -0.094480    288.000000
 -0.147272  0.255082  0.025767    576.000000
 -0.105194  0.230789  0.008589    576.000000
 -0.063117  0.206495 -0.008589    576.000000
 -0.021039  0.182202 -0.025767    576.000000
 -0.147272 -0.085027  0.146014    288.000000
 -0.105194 -0.109321  0.128836    576.000000
 -0.063117 -0.133615  0.111658    576.000000
 -0.105194 -0.060734  0.111658    288.000000
 -0.063117 -0.085027  0.094480    576.000000
 -0.063117 -0.036440  0.077302    288.000000
  0.063117  0.036440  0.025767     96.000000
  0.105194  0.012147  0.008589    288.000000
  0.147272 -0.012147 -0.008589    288.000000
 -0.147272  0.157908  0.111658    288.000000
 -0.105194  0.133615  0.094480    288.000000
 -0.063117  0.109321  0.077302    288.000000
  0.105194  0.060734 -0.008589    288.000000
  0.147272  0.036440 -0.025767    576.000000
 -0.147272  0.206495  0.094480    576.000000
 -0.105194  0.182202  0.077302    576.000000
 -0.063117  0.157908  0.060123    576.000000
  0.147272  0.085027 -0.042945    288.000000
 -0.147272  0.255082  0.077302    576.000000
 -0.105194  0.230789  0.060123    576.000000
 -0.063117  0.206495  0.042945    576.000000
 -0.147272 -0.085027  0.197549    288.000000
 -0.105194 -0.109321  0.180370    576.000000
 -0.105194 -0.060734  0.163192    288.000000
  0.105194  0.060734  0.042945     96.000000
  0.147272  0.036440  0.025767    288.000000
 -0.147272  0.206495  0.146014    288.000000
 -0.105194  0.182202  0.128836    288.000000
  0.147272  0.085027  0.008589    288.000000
 -0.147272  0.255082  0.128836    576.000000
 -0.105194  0.230789  0.111658    576.000000
 -0.147272 -0.085027  0.249083    288.000000
  0.147272  0.085027  0.060123     96.000000
 -0.147272  0.255082  0.180370    288.000000
 


--------------------------------------------------------------------------------------------------------




 Dimension of arrays:
   k-points           NKPTS =     60   k-points in BZ     NKDIM =     60   number of bands    NBANDS=      9
   number of dos      NEDOS =    301   number of ions     NIONS =      1
   non local maximal  LDIM  =      6   non local SUM 2l+1 LMDIM =     18
   total plane-waves  NPLWV =   2744
   max r-space proj   IRMAX =      1   max aug-charges    IRDMAX=   7379
   dimension x,y,z NGX =    14 NGY =   14 NGZ =   14
   dimension x,y,z NGXF=    28 NGYF=   28 NGZF=   28
   support grid    NGXF=    28 NGYF=   28 NGZF=   28
   ions per type =               1
 NGX,Y,Z   is equivalent  to a cutoff of   7.83,  7.83,  7.83 a.u.
 NGXF,Y,Z  is equivalent  to a cutoff of  15.67, 15.67, 15.67 a.u.


 I would recommend the setting:
   dimension x,y,z NGX =    14 NGY =   14 NGZ =   14
 SYSTEM =  unknown system                          
 POSCAR =  Pd                                      

 Startparameter for this run:
   NWRITE =      2    write-flag & timer
   PREC   = normal    normal or accurate (medium, high low for compatibility)
   ISTART =      0    job   : 0-new  1-cont  2-samecut
   ICHARG =      2    charge: 1-file 2-atom 10-const
   ISPIN  =      1    spin polarized calculation?
   LNONCOLLINEAR =      F non collinear calculations
   LSORBIT =      F    spin-orbit coupling
   INIWAV =      1    electr: 0-lowe 1-rand  2-diag
   LASPH  =      F    aspherical Exc in radial PAW
   METAGGA=      F    non-selfconsistent MetaGGA calc.

 Electronic Relaxation 1
   ENCUT  =  350.0 eV  25.72 Ry    5.07 a.u.   4.53  4.53  4.53*2*pi/ulx,y,z
   ENINI  =  350.0     initial cutoff
   ENAUG  =  416.2 eV  augmentation charge cutoff
   NELM   =     60;   NELMIN=  2; NELMDL= -5     # of ELM steps 
   EDIFF  = 0.1E-03   stopping-criterion for ELM
   LREAL  =      F    real-space projection
   NLSPLINE    = F    spline interpolate recip. space projectors
   LCOMPAT=      F    compatible to vasp.4.4
   GGA_COMPAT  = T    GGA compatible to vasp.4.4-vasp.4.6
   LMAXPAW     = -100 max onsite density
   LMAXMIX     =    2 max onsite mixed and CHGCAR
   VOSKOWN=      0    Vosko Wilk Nusair interpolation
   ROPT   =    0.00000
 Ionic relaxation
   EDIFFG = 0.1E-02   stopping-criterion for IOM
   NSW    =     30    number of steps for IOM
   NBLOCK =      1;   KBLOCK =     30    inner block; outer block 
   IBRION =      2    ionic relax: 0-MD 1-quasi-New 2-CG
   NFREE  =      1    steps in history (QN), initial steepest desc. (CG)
   ISIF   =      2    stress and relaxation
   IWAVPR =     11    prediction:  0-non 1-charg 2-wave 3-comb
   ISYM   =      2    0-nonsym 1-usesym 2-fastsym
   LCORR  =      T    Harris-Foulkes like correction to forces

   POTIM  = 0.5000    time-step for ionic-motion
   TEIN   =    0.0    initial temperature
   TEBEG  =    0.0;   TEEND  =   0.0 temperature during run
   SMASS  =  -3.00    Nose mass-parameter (am)
   estimated Nose-frequenzy (Omega)   =  0.10E-29 period in steps =****** mass=  -0.202E-27a.u.
   SCALEE = 1.0000    scale energy and forces
   NPACO  =    256;   APACO  = 16.0  distance and # of slots for P.C.
   PSTRESS=    0.0 pullay stress

  Mass of Ions in am
   POMASS = 106.42
  Ionic Valenz
   ZVAL   =  10.00
  Atomic Wigner-Seitz radii
   RWIGS  =  -1.00
  virtual crystal weights 
   VCA    =   1.00
   NELECT =      10.0000    total number of electrons
   NUPDOWN=      -1.0000    fix difference up-down

 DOS related values:
   EMIN   =  10.00;   EMAX   =-10.00  energy-range for DOS
   EFERMI =   0.00
   ISMEAR =     1;   SIGMA  =   0.20  broadening in eV -4-tet -1-fermi 0-gaus

 Electronic relaxation 2 (details)
   IALGO  =     38    algorithm
   LDIAG  =      T    sub-space diagonalisation (order eigenvalues)
   LSUBROT=      F    optimize rotation matrix (better conditioning)
   TURBO    =      0    0=normal 1=particle mesh
   IRESTART =      0    0=no restart 2=restart with 2 vectors
   NREBOOT  =      0    no. of reboots
   NMIN     =      0    reboot dimension
   EREF     =   0.00    reference energy to select bands
   IMIX   =      4    mixing-type and parameters
     AMIX     =   0.40;   BMIX     =  1.00
     AMIX_MAG =   1.60;   BMIX_MAG =  1.00
     AMIN     =   0.10
     WC   =   100.;   INIMIX=   1;  MIXPRE=   1;  MAXMIX= -45

 Intra band minimization:
   WEIMIN = 0.0010     energy-eigenvalue tresh-hold
   EBREAK =  0.28E-05  absolut break condition
   DEPER  =   0.30     relativ break condition  

   TIME   =   0.40     timestep for ELM

  volume/ion in A,a.u.               =      18.54       125.10
  Fermi-wavevector in a.u.,A,eV,Ry     =   1.332666  2.518374 24.163946  1.776000
  Thomas-Fermi vector in A             =   2.461584
 
 Write flags
   LWAVE  =      T    write WAVECAR
   LCHARG =      T    write CHGCAR
   LVTOT  =      F    write LOCPOT, total local potential
   LVHAR  =      F    write LOCPOT, Hartree potential only
   LELF   =      F    write electronic localiz. function (ELF)
   LORBIT =      0    0 simple, 1 ext, 2 COOP (PROOUT)


 Dipole corrections
   LMONO  =      F    monopole corrections only (constant potential shift)
   LDIPOL =      F    correct potential (dipole corrections)
   IDIPOL =      0    1-x, 2-y, 3-z, 4-all directions 
   EPSILON=  1.0000000 bulk dielectric constant

 Exchange correlation treatment:
   GGA     =    --    GGA type
   LEXCH   =     8    internal setting for exchange type
   VOSKOWN=      0    Vosko Wilk Nusair interpolation
   LHFCALC =     F    Hartree Fock is set to
   LHFONE  =     F    Hartree Fock one center treatment
   AEXX    =    0.0000 exact exchange contribution

 Linear response parameters
   LEPSILON=     F    determine dielectric tensor
   LRPA    =     F    only Hartree local field effects (RPA)
   LNABLA  =     F    use nabla operator in PAW spheres
   LVEL    =     F    velocity operator in full k-point grid
   LINTERFAST=   F  fast interpolation
   KINTER  =     0    interpolate to denser k-point grid
   CSHIFT  =0.1000    complex shift for real part using Kramers Kronig
   OMEGAMAX=  -1.0    maximum frequency
   DEG_THRESHOLD= 0.2000000E-02 threshold for treating states as degnerate
   RTIME   =    0.100 relaxation time in fs

 Orbital magnetization related:
   ORBITALMAG=     F  switch on orbital magnetization
   LCHIMAG   =     F  perturbation theory with respect to B field
   DQ        =  0.001000  dq finite difference perturbation B field



--------------------------------------------------------------------------------------------------------


 conjugate gradient relaxation of ions
 charge density and potential will be updated during run
 non-spin polarized calculation
 Variant of blocked Davidson
 Davidson routine will perform the subspace rotation
 perform sub-space diagonalisation
    after iterative eigenvector-optimisation
 modified Broyden-mixing scheme, WC =      100.0
 initial mixing is a Kerker type mixing with AMIX =  0.4000 and BMIX =      1.0000
 Hartree-type preconditioning will be used
 using additional bands            4
 reciprocal scheme for non local part
 use partial core corrections
 calculate Harris-corrections to forces 
   (improved forces if not selfconsistent)
 use gradient corrections 
 use of overlap-Matrix (Vanderbilt PP)
 Methfessel and Paxton  Order N= 1 SIGMA  =   0.20


--------------------------------------------------------------------------------------------------------


  energy-cutoff  :      350.00
  volume of cell :       18.54
      direct lattice vectors                 reciprocal lattice vectors
     2.970697009  0.000000000  0.000000000     0.336621337 -0.194348420 -0.137425085
     1.485348505  2.572699077  0.000000000     0.000000000  0.388696839 -0.137425085
     1.485348505  0.857566359  2.425563951     0.000000000  0.000000000  0.412275256

  length of vectors
     2.970697009  2.970697009  2.970697009     0.412275256  0.412275256  0.412275256


 
 k-points in units of 2pi/SCALE and weight: KPOINTS created by Atomic Simulation Env
   0.02103883  0.01214678  0.00858907       0.004
   0.06311650 -0.01214678 -0.00858907       0.012
   0.10519417 -0.03644033 -0.02576720       0.012
   0.14727184 -0.06073388 -0.04294534       0.012
  -0.14727184  0.10932099  0.07730161       0.012
  -0.10519417  0.08502743  0.06012347       0.012
  -0.06311650  0.06073388  0.04294534       0.012
  -0.02103883  0.03644033  0.02576720       0.012
   0.06311650  0.03644033 -0.02576720       0.012
   0.10519417  0.01214678 -0.04294534       0.023
   0.14727184 -0.01214678 -0.06012347       0.023
  -0.14727184  0.15790809  0.06012347       0.023
  -0.10519417  0.13361454  0.04294534       0.023
  -0.06311650  0.10932099  0.02576720       0.023
  -0.02103883  0.08502743  0.00858907       0.023
   0.10519417  0.06073388 -0.06012347       0.012
   0.14727184  0.03644033 -0.07730161       0.023
  -0.14727184  0.20649520  0.04294534       0.023
  -0.10519417  0.18220164  0.02576720       0.023
  -0.06311650  0.15790809  0.00858907       0.023
  -0.02103883  0.13361454 -0.00858907       0.023
   0.14727184  0.08502743 -0.09447975       0.012
  -0.14727184  0.25508230  0.02576720       0.023
  -0.10519417  0.23078875  0.00858907       0.023
  -0.06311650  0.20649520 -0.00858907       0.023
  -0.02103883  0.18220164 -0.02576720       0.023
  -0.14727184 -0.08502743  0.14601415       0.012
  -0.10519417 -0.10932099  0.12883602       0.023
  -0.06311650 -0.13361454  0.11165788       0.023
  -0.10519417 -0.06073388  0.11165788       0.012
  -0.06311650 -0.08502743  0.09447975       0.023
  -0.06311650 -0.03644033  0.07730161       0.012
   0.06311650  0.03644033  0.02576720       0.004
   0.10519417  0.01214678  0.00858907       0.012
   0.14727184 -0.01214678 -0.00858907       0.012
  -0.14727184  0.15790809  0.11165788       0.012
  -0.10519417  0.13361454  0.09447975       0.012
  -0.06311650  0.10932099  0.07730161       0.012
   0.10519417  0.06073388 -0.00858907       0.012
   0.14727184  0.03644033 -0.02576720       0.023
  -0.14727184  0.20649520  0.09447975       0.023
  -0.10519417  0.18220164  0.07730161       0.023
  -0.06311650  0.15790809  0.06012347       0.023
   0.14727184  0.08502743 -0.04294534       0.012
  -0.14727184  0.25508230  0.07730161       0.023
  -0.10519417  0.23078875  0.06012347       0.023
  -0.06311650  0.20649520  0.04294534       0.023
  -0.14727184 -0.08502743  0.19754856       0.012
  -0.10519417 -0.10932099  0.18037042       0.023
  -0.10519417 -0.06073388  0.16319229       0.012
   0.10519417  0.06073388  0.04294534       0.004
   0.14727184  0.03644033  0.02576720       0.012
  -0.14727184  0.20649520  0.14601415       0.012
  -0.10519417  0.18220164  0.12883602       0.012
   0.14727184  0.08502743  0.00858907       0.012
  -0.14727184  0.25508230  0.12883602       0.023
  -0.10519417  0.23078875  0.11165788       0.023
  -0.14727184 -0.08502743  0.24908297       0.012
   0.14727184  0.08502743  0.06012347       0.004
  -0.14727184  0.25508230  0.18037042       0.012
 
 k-points in reciprocal lattice and weights: KPOINTS created by Atomic Simulation Env
   0.06250000  0.06250000  0.06250000       0.004
   0.18750000  0.06250000  0.06250000       0.012
   0.31250000  0.06250000  0.06250000       0.012
   0.43750000  0.06250000  0.06250000       0.012
  -0.43750000  0.06250000  0.06250000       0.012
  -0.31250000  0.06250000  0.06250000       0.012
  -0.18750000  0.06250000  0.06250000       0.012
  -0.06250000  0.06250000  0.06250000       0.012
   0.18750000  0.18750000  0.06250000       0.012
   0.31250000  0.18750000  0.06250000       0.023
   0.43750000  0.18750000  0.06250000       0.023
  -0.43750000  0.18750000  0.06250000       0.023
  -0.31250000  0.18750000  0.06250000       0.023
  -0.18750000  0.18750000  0.06250000       0.023
  -0.06250000  0.18750000  0.06250000       0.023
   0.31250000  0.31250000  0.06250000       0.012
   0.43750000  0.31250000  0.06250000       0.023
  -0.43750000  0.31250000  0.06250000       0.023
  -0.31250000  0.31250000  0.06250000       0.023
  -0.18750000  0.31250000  0.06250000       0.023
  -0.06250000  0.31250000  0.06250000       0.023
   0.43750000  0.43750000  0.06250000       0.012
  -0.43750000  0.43750000  0.06250000       0.023
  -0.31250000  0.43750000  0.06250000       0.023
  -0.18750000  0.43750000  0.06250000       0.023
  -0.06250000  0.43750000  0.06250000       0.023
  -0.43750000 -0.43750000  0.06250000       0.012
  -0.31250000 -0.43750000  0.06250000       0.023
  -0.18750000 -0.43750000  0.06250000       0.023
  -0.31250000 -0.31250000  0.06250000       0.012
  -0.18750000 -0.31250000  0.06250000       0.023
  -0.18750000 -0.18750000  0.06250000       0.012
   0.18750000  0.18750000  0.18750000       0.004
   0.31250000  0.18750000  0.18750000       0.012
   0.43750000  0.18750000  0.18750000       0.012
  -0.43750000  0.18750000  0.18750000       0.012
  -0.31250000  0.18750000  0.18750000       0.012
  -0.18750000  0.18750000  0.18750000       0.012
   0.31250000  0.31250000  0.18750000       0.012
   0.43750000  0.31250000  0.18750000       0.023
  -0.43750000  0.31250000  0.18750000       0.023
  -0.31250000  0.31250000  0.18750000       0.023
  -0.18750000  0.31250000  0.18750000       0.023
   0.43750000  0.43750000  0.18750000       0.012
  -0.43750000  0.43750000  0.18750000       0.023
  -0.31250000  0.43750000  0.18750000       0.023
  -0.18750000  0.43750000  0.18750000       0.023
  -0.43750000 -0.43750000  0.18750000       0.012
  -0.31250000 -0.43750000  0.18750000       0.023
  -0.31250000 -0.31250000  0.18750000       0.012
   0.31250000  0.31250000  0.31250000       0.004
   0.43750000  0.31250000  0.31250000       0.012
  -0.43750000  0.31250000  0.31250000       0.012
  -0.31250000  0.31250000  0.31250000       0.012
   0.43750000  0.43750000  0.31250000       0.012
  -0.43750000  0.43750000  0.31250000       0.023
  -0.31250000  0.43750000  0.31250000       0.023
  -0.43750000 -0.43750000  0.31250000       0.012
   0.43750000  0.43750000  0.43750000       0.004
  -0.43750000  0.43750000  0.43750000       0.012
 
 position of ions in fractional coordinates (direct lattice) 
   0.00000000  0.00000000  0.00000000
 
 position of ions in cartesian coordinates  (Angst):
   0.00000000  0.00000000  0.00000000
 


--------------------------------------------------------------------------------------------------------


 k-point  1 :   0.0625 0.0625 0.0625  plane waves:     283
 k-point  2 :   0.1875 0.0625 0.0625  plane waves:     280
 k-point  3 :   0.3125 0.0625 0.0625  plane waves:     282
 k-point  4 :   0.4375 0.0625 0.0625  plane waves:     276
 k-point  5 :  -0.4375 0.0625 0.0625  plane waves:     271
 k-point  6 :  -0.3125 0.0625 0.0625  plane waves:     276
 k-point  7 :  -0.1875 0.0625 0.0625  plane waves:     283
 k-point  8 :  -0.0625 0.0625 0.0625  plane waves:     280
 k-point  9 :   0.1875 0.1875 0.0625  plane waves:     287
 k-point 10 :   0.3125 0.1875 0.0625  plane waves:     286
 k-point 11 :   0.4375 0.1875 0.0625  plane waves:     276
 k-point 12 :  -0.4375 0.1875 0.0625  plane waves:     273
 k-point 13 :  -0.3125 0.1875 0.0625  plane waves:     274
 k-point 14 :  -0.1875 0.1875 0.0625  plane waves:     279
 k-point 15 :  -0.0625 0.1875 0.0625  plane waves:     285
 k-point 16 :   0.3125 0.3125 0.0625  plane waves:     280
 k-point 17 :   0.4375 0.3125 0.0625  plane waves:     274
 k-point 18 :  -0.4375 0.3125 0.0625  plane waves:     273
 k-point 19 :  -0.3125 0.3125 0.0625  plane waves:     275
 k-point 20 :  -0.1875 0.3125 0.0625  plane waves:     273
 k-point 21 :  -0.0625 0.3125 0.0625  plane waves:     278
 k-point 22 :   0.4375 0.4375 0.0625  plane waves:     276
 k-point 23 :  -0.4375 0.4375 0.0625  plane waves:     275
 k-point 24 :  -0.3125 0.4375 0.0625  plane waves:     274
 k-point 25 :  -0.1875 0.4375 0.0625  plane waves:     272
 k-point 26 :  -0.0625 0.4375 0.0625  plane waves:     274
 k-point 27 :  -0.4375-0.4375 0.0625  plane waves:     274
 k-point 28 :  -0.3125-0.4375 0.0625  plane waves:     274
 k-point 29 :  -0.1875-0.4375 0.0625  plane waves:     274
 k-point 30 :  -0.3125-0.3125 0.0625  plane waves:     274
 k-point 31 :  -0.1875-0.3125 0.0625  plane waves:     281
 k-point 32 :  -0.1875-0.1875 0.0625  plane waves:     286
 k-point 33 :   0.1875 0.1875 0.1875  plane waves:     277
 k-point 34 :   0.3125 0.1875 0.1875  plane waves:     283
 k-point 35 :   0.4375 0.1875 0.1875  plane waves:     273
 k-point 36 :  -0.4375 0.1875 0.1875  plane waves:     272
 k-point 37 :  -0.3125 0.1875 0.1875  plane waves:     275
 k-point 38 :  -0.1875 0.1875 0.1875  plane waves:     282
 k-point 39 :   0.3125 0.3125 0.1875  plane waves:     283
 k-point 40 :   0.4375 0.3125 0.1875  plane waves:     276
 k-point 41 :  -0.4375 0.3125 0.1875  plane waves:     274
 k-point 42 :  -0.3125 0.3125 0.1875  plane waves:     273
 k-point 43 :  -0.1875 0.3125 0.1875  plane waves:     272
 k-point 44 :   0.4375 0.4375 0.1875  plane waves:     274
 k-point 45 :  -0.4375 0.4375 0.1875  plane waves:     275
 k-point 46 :  -0.3125 0.4375 0.1875  plane waves:     269
 k-point 47 :  -0.1875 0.4375 0.1875  plane waves:     271
 k-point 48 :  -0.4375-0.4375 0.1875  plane waves:     274
 k-point 49 :  -0.3125-0.4375 0.1875  plane waves:     273
 k-point 50 :  -0.3125-0.3125 0.1875  plane waves:     273
 k-point 51 :   0.3125 0.3125 0.3125  plane waves:     287
 k-point 52 :   0.4375 0.3125 0.3125  plane waves:     277
 k-point 53 :  -0.4375 0.3125 0.3125  plane waves:     276
 k-point 54 :  -0.3125 0.3125 0.3125  plane waves:     274
 k-point 55 :   0.4375 0.4375 0.3125  plane waves:     271
 k-point 56 :  -0.4375 0.4375 0.3125  plane waves:     272
 k-point 57 :  -0.3125 0.4375 0.3125  plane waves:     272
 k-point 58 :  -0.4375-0.4375 0.3125  plane waves:     273
 k-point 59 :   0.4375 0.4375 0.4375  plane waves:     269
 k-point 60 :  -0.4375 0.4375 0.4375  plane waves:     271

 maximum number of plane-waves:       287
 maximum index in each direction: 
   IXMAX=    4   IYMAX=    4   IZMAX=    4
   IXMIN=   -4   IYMIN=   -4   IZMIN=   -4

 WARNING: aliasing errors must be expected set NGX to  18 to avoid them
 WARNING: aliasing errors must be expected set NGY to  18 to avoid them
 WARNING: aliasing errors must be expected set NGZ to  18 to avoid them
 aliasing errors are usually negligible using standard VASP settings
 and one can safely disregard these warnings

 total amount of memory used by VASP on root node    36350. kBytes
========================================================================

   base      :      30000. kBytes
   nonl-proj :       2484. kBytes
   grid      :       1216. kBytes
   one-center:         15. kBytes
   wavefun   :       2635. kBytes
 
     INWAV:  cpu time    0.00: real time    0.00
 Broyden mixing: mesh for mixing (old mesh)
   NGX =  9   NGY =  9   NGZ =  9
  (NGX  = 28   NGY  = 28   NGZ  = 28)
  gives a total of    729 points

 initial charge density was supplied:
 charge density of overlapping atoms calculated
 number of electron      10.0000000 magnetization 
 keeping initial charge density in first step


--------------------------------------------------------------------------------------------------------


 Maximum index for augmentation-charges         6963 (set IRDMAX)


--------------------------------------------------------------------------------------------------------


 First call to EWALD:  gamma=   0.670
 Maximum number of real-space cells 3x 3x 3
 Maximum number of reciprocal cells 3x 3x 3

    FEWALD:  cpu time    0.00: real time    0.00


----------------------------------------- Iteration    1(   1)  ---------------------------------------


    POTLOK:  cpu time    0.02: real time    0.02
    SETDIJ:  cpu time    0.01: real time    0.01
     EDDAV:  cpu time    0.65: real time    0.65
       DOS:  cpu time    0.01: real time    0.00
    --------------------------------------------
      LOOP:  cpu time    0.69: real time    0.69

 eigenvalue-minimisations  :  1096
 total energy-change (2. order) : 0.2816324E+02  (-0.3968477E+03)
 number of electron      10.0000000 magnetization 
 augmentation part       10.0000000 magnetization 

 Free energy of the ion-electron system (eV)
  ---------------------------------------------------
  alpha Z        PSCENC =        35.15786223
  Ewald energy   TEWEN  =      -785.74024144
  -Hartree energ DENC   =      -149.07648204
  -exchange      EXHF   =         0.00000000
  -V(xc)+E(xc)   XCENC  =       -29.80304964
  PAW double counting   =       806.73831454     -744.51602449
  entropy T*S    EENTRO =        -0.00158583
  eigenvalues    EBANDS =        85.67831733
  atomic energy  EATOM  =       809.72612850
  ---------------------------------------------------
  free energy    TOTEN  =        28.16323917 eV

  energy without entropy =       28.16482500  energy(sigma->0) =       28.16376778


--------------------------------------------------------------------------------------------------------




----------------------------------------- Iteration    1(   2)  ---------------------------------------


     EDDAV:  cpu time    0.64: real time    0.64
       DOS:  cpu time    0.01: real time    0.01
    --------------------------------------------
      LOOP:  cpu time    0.65: real time    0.73

 eigenvalue-minimisations  :  1128
 total energy-change (2. order) :-0.3302774E+02  (-0.3192637E+02)
 number of electron      10.0000000 magnetization 
 augmentation part       10.0000000 magnetization 

 Free energy of the ion-electron system (eV)
  ---------------------------------------------------
  alpha Z        PSCENC =        35.15786223
  Ewald energy   TEWEN  =      -785.74024144
  -Hartree energ DENC   =      -149.07648204
  -exchange      EXHF   =         0.00000000
  -V(xc)+E(xc)   XCENC  =       -29.80304964
  PAW double counting   =       806.73831454     -744.51602449
  entropy T*S    EENTRO =        -0.00507178
  eigenvalues    EBANDS =        52.65406520
  atomic energy  EATOM  =       809.72612850
  ---------------------------------------------------
  free energy    TOTEN  =        -4.86449892 eV

  energy without entropy =       -4.85942714  energy(sigma->0) =       -4.86280833


--------------------------------------------------------------------------------------------------------




----------------------------------------- Iteration    1(   3)  ---------------------------------------


     EDDAV:  cpu time    0.73: real time    0.73
       DOS:  cpu time    0.01: real time    0.01
    --------------------------------------------
      LOOP:  cpu time    0.74: real time    0.75

 eigenvalue-minimisations  :  1311
 total energy-change (2. order) :-0.3146218E+00  (-0.3105452E+00)
 number of electron      10.0000000 magnetization 
 augmentation part       10.0000000 magnetization 

 Free energy of the ion-electron system (eV)
  ---------------------------------------------------
  alpha Z        PSCENC =        35.15786223
  Ewald energy   TEWEN  =      -785.74024144
  -Hartree energ DENC   =      -149.07648204
  -exchange      EXHF   =         0.00000000
  -V(xc)+E(xc)   XCENC  =       -29.80304964
  PAW double counting   =       806.73831454     -744.51602449
  entropy T*S    EENTRO =        -0.00982277
  eigenvalues    EBANDS =        52.34419442
  atomic energy  EATOM  =       809.72612850
  ---------------------------------------------------
  free energy    TOTEN  =        -5.17912068 eV

  energy without entropy =       -5.16929791  energy(sigma->0) =       -5.17584642


--------------------------------------------------------------------------------------------------------




----------------------------------------- Iteration    1(   4)  ---------------------------------------


     EDDAV:  cpu time    0.69: real time    0.69
       DOS:  cpu time    0.01: real time    0.01
    --------------------------------------------
      LOOP:  cpu time    0.70: real time    0.73

 eigenvalue-minimisations  :  1215
 total energy-change (2. order) :-0.1413232E-02  (-0.1413122E-02)
 number of electron      10.0000000 magnetization 
 augmentation part       10.0000000 magnetization 

 Free energy of the ion-electron system (eV)
  ---------------------------------------------------
  alpha Z        PSCENC =        35.15786223
  Ewald energy   TEWEN  =      -785.74024144
  -Hartree energ DENC   =      -149.07648204
  -exchange      EXHF   =         0.00000000
  -V(xc)+E(xc)   XCENC  =       -29.80304964
  PAW double counting   =       806.73831454     -744.51602449
  entropy T*S    EENTRO =        -0.00984778
  eigenvalues    EBANDS =        52.34280620
  atomic energy  EATOM  =       809.72612850
  ---------------------------------------------------
  free energy    TOTEN  =        -5.18053391 eV

  energy without entropy =       -5.17068614  energy(sigma->0) =       -5.17725132


--------------------------------------------------------------------------------------------------------




----------------------------------------- Iteration    1(   5)  ---------------------------------------


     EDDAV:  cpu time    0.69: real time    0.69
       DOS:  cpu time    0.00: real time    0.01
    CHARGE:  cpu time    0.06: real time    0.06
    MIXING:  cpu time    0.00: real time    0.00
    --------------------------------------------
      LOOP:  cpu time    0.75: real time    0.82

 eigenvalue-minimisations  :  1216
 total energy-change (2. order) :-0.2131518E-04  (-0.2131573E-04)
 number of electron       9.9999977 magnetization 
 augmentation part        4.0447925 magnetization 

 Broyden mixing:
  rms(total) = 0.41157E+00    rms(broyden)= 0.41149E+00
  rms(prec ) = 0.11692E+01
  weight for this iteration     100.00

 Free energy of the ion-electron system (eV)
  ---------------------------------------------------
  alpha Z        PSCENC =        35.15786223
  Ewald energy   TEWEN  =      -785.74024144
  -Hartree energ DENC   =      -149.07648204
  -exchange      EXHF   =         0.00000000
  -V(xc)+E(xc)   XCENC  =       -29.80304964
  PAW double counting   =       806.73831454     -744.51602449
  entropy T*S    EENTRO =        -0.00984828
  eigenvalues    EBANDS =        52.34278539
  atomic energy  EATOM  =       809.72612850
  ---------------------------------------------------
  free energy    TOTEN  =        -5.18055523 eV

  energy without entropy =       -5.17070695  energy(sigma->0) =       -5.17727247


--------------------------------------------------------------------------------------------------------




----------------------------------------- Iteration    1(   6)  ---------------------------------------


    POTLOK:  cpu time    0.02: real time    0.02
    SETDIJ:  cpu time    0.01: real time    0.01
     EDDAV:  cpu time    0.64: real time    0.64
       DOS:  cpu time    0.00: real time    0.01
    CHARGE:  cpu time    0.05: real time    0.05
    MIXING:  cpu time    0.00: real time    0.00
    --------------------------------------------
      LOOP:  cpu time    0.73: real time    0.75

 eigenvalue-minimisations  :  1101
 total energy-change (2. order) : 0.1918097E+00  (-0.1288430E+00)
 number of electron       9.9999975 magnetization 
 augmentation part        4.2444766 magnetization 

 Broyden mixing:
  rms(total) = 0.20509E+00    rms(broyden)= 0.20508E+00
  rms(prec ) = 0.22117E+00
  weight for this iteration     100.00

 eigenvalues of (default mixing * dielectric matrix)
  average eigenvalue GAMMA=   1.0655
  1.0655

 Free energy of the ion-electron system (eV)
  ---------------------------------------------------
  alpha Z        PSCENC =        35.15786223
  Ewald energy   TEWEN  =      -785.74024144
  -Hartree energ DENC   =      -141.26616344
  -exchange      EXHF   =         0.00000000
  -V(xc)+E(xc)   XCENC  =       -30.04219116
  PAW double counting   =       829.78015735     -768.41065399
  entropy T*S    EENTRO =        -0.00770767
  eigenvalues    EBANDS =        45.81406411
  atomic energy  EATOM  =       809.72612850
  ---------------------------------------------------
  free energy    TOTEN  =        -4.98874551 eV

  energy without entropy =       -4.98103784  energy(sigma->0) =       -4.98617628


--------------------------------------------------------------------------------------------------------




----------------------------------------- Iteration    1(   7)  ---------------------------------------


    POTLOK:  cpu time    0.02: real time    0.02
    SETDIJ:  cpu time    0.01: real time    0.01
     EDDAV:  cpu time    0.65: real time    0.65
       DOS:  cpu time    0.01: real time    0.01
    CHARGE:  cpu time    0.05: real time    0.05
    MIXING:  cpu time    0.00: real time    0.00
    --------------------------------------------
      LOOP:  cpu time    0.74: real time    0.76

 eigenvalue-minimisations  :  1125
 total energy-change (2. order) : 0.2716161E-02  (-0.7008022E-03)
 number of electron       9.9999976 magnetization 
 augmentation part        4.2319434 magnetization 

 Broyden mixing:
  rms(total) = 0.11750E+00    rms(broyden)= 0.11750E+00
  rms(prec ) = 0.13116E+00
  weight for this iteration     100.00

 eigenvalues of (default mixing * dielectric matrix)
  average eigenvalue GAMMA=   1.6747
  0.9351  2.4143

 Free energy of the ion-electron system (eV)
  ---------------------------------------------------
  alpha Z        PSCENC =        35.15786223
  Ewald energy   TEWEN  =      -785.74024144
  -Hartree energ DENC   =      -141.41562829
  -exchange      EXHF   =         0.00000000
  -V(xc)+E(xc)   XCENC  =       -30.04118600
  PAW double counting   =       849.32662994     -788.14655923
  entropy T*S    EENTRO =        -0.00782871
  eigenvalues    EBANDS =        46.15479365
  atomic energy  EATOM  =       809.72612850
  ---------------------------------------------------
  free energy    TOTEN  =        -4.98602935 eV

  energy without entropy =       -4.97820063  energy(sigma->0) =       -4.98341978


--------------------------------------------------------------------------------------------------------




----------------------------------------- Iteration    1(   8)  ---------------------------------------


    POTLOK:  cpu time    0.02: real time    0.02
    SETDIJ:  cpu time    0.01: real time    0.01
     EDDAV:  cpu time    0.65: real time    0.65
       DOS:  cpu time    0.01: real time    0.01
    CHARGE:  cpu time    0.05: real time    0.05
    MIXING:  cpu time    0.00: real time    0.00
    --------------------------------------------
      LOOP:  cpu time    0.74: real time    0.90

 eigenvalue-minimisations  :  1129
 total energy-change (2. order) : 0.1068535E-02  (-0.6596832E-04)
 number of electron       9.9999976 magnetization 
 augmentation part        4.2342575 magnetization 

 Broyden mixing:
  rms(total) = 0.29900E-02    rms(broyden)= 0.29896E-02
  rms(prec ) = 0.53797E-02
  weight for this iteration     100.00

 eigenvalues of (default mixing * dielectric matrix)
  average eigenvalue GAMMA=   1.6335
  2.5636  0.9332  1.4037

 Free energy of the ion-electron system (eV)
  ---------------------------------------------------
  alpha Z        PSCENC =        35.15786223
  Ewald energy   TEWEN  =      -785.74024144
  -Hartree energ DENC   =      -140.89839085
  -exchange      EXHF   =         0.00000000
  -V(xc)+E(xc)   XCENC  =       -30.06071262
  PAW double counting   =       878.27849449     -817.41886357
  entropy T*S    EENTRO =        -0.00773829
  eigenvalues    EBANDS =        45.97850074
  atomic energy  EATOM  =       809.72612850
  ---------------------------------------------------
  free energy    TOTEN  =        -4.98496081 eV

  energy without entropy =       -4.97722253  energy(sigma->0) =       -4.98238138


--------------------------------------------------------------------------------------------------------




----------------------------------------- Iteration    1(   9)  ---------------------------------------


    POTLOK:  cpu time    0.02: real time    0.02
    SETDIJ:  cpu time    0.01: real time    0.01
     EDDAV:  cpu time    0.41: real time    0.41
       DOS:  cpu time    0.00: real time    0.01
    --------------------------------------------
      LOOP:  cpu time    0.45: real time    0.46

 eigenvalue-minimisations  :   570
 total energy-change (2. order) :-0.1369374E-04  (-0.7890492E-06)
 number of electron       9.9999976 magnetization 
 augmentation part        4.2342575 magnetization 

 Free energy of the ion-electron system (eV)
  ---------------------------------------------------
  alpha Z        PSCENC =        35.15786223
  Ewald energy   TEWEN  =      -785.74024144
  -Hartree energ DENC   =      -140.88646620
  -exchange      EXHF   =         0.00000000
  -V(xc)+E(xc)   XCENC  =       -30.06146002
  PAW double counting   =       879.81284293     -818.95411249
  entropy T*S    EENTRO =        -0.00773397
  eigenvalues    EBANDS =        45.96820596
  atomic energy  EATOM  =       809.72612850
  ---------------------------------------------------
  free energy    TOTEN  =        -4.98497451 eV

  energy without entropy =       -4.97724054  energy(sigma->0) =       -4.98239652


--------------------------------------------------------------------------------------------------------




 average (electrostatic) potential at core
  the test charge radii are     1.1199
  (the norm of the test charge is              1.0000)
       1 -73.3039
 
 
 
 E-fermi :   6.4065     XC(G=0): -11.8031     alpha+bet :-13.2834


 k-point     1 :       0.0625    0.0625    0.0625
  band No.  band energies     occupation 
      1       0.9861      2.00000
      2       4.4075      2.00000
      3       4.4749      2.00000
      4       4.4749      2.00000
      5       5.5320      2.00000
      6       5.5320      2.00000
      7      23.2871      0.00000
      8      25.8014      0.00000
      9      26.8036      0.00000

 k-point     2 :       0.1875    0.0625    0.0625
  band No.  band energies     occupation 
      1       1.5749      2.00000
      2       4.2507      2.00000
      3       4.6251      2.00000
      4       4.6435      2.00000
      5       5.3886      2.00000
      6       5.6165      2.00000
      7      22.6407      0.00000
      8      23.8406      0.00000
      9      26.1188      0.00000

 k-point     3 :       0.3125    0.0625    0.0625
  band No.  band energies     occupation 
      1       2.5626      2.00000
      2       4.4256      2.00000
      3       4.6705      2.00000
      4       4.6860      2.00000
      5       5.5581      2.00000
      6       6.0114      2.01728
      7      18.3614      0.00000
      8      23.3565      0.00000
      9      25.6238      0.00000

 k-point     4 :       0.4375    0.0625    0.0625
  band No.  band energies     occupation 
      1       2.7552      2.00000
      2       4.4465      2.00000
      3       4.5265      2.00000
      4       5.7372      2.00002
      5       6.0857      2.04576
      6       7.0948     -0.00001
      7      14.1265      0.00000
      8      22.6946      0.00000
      9      24.5426      0.00000

 k-point     5 :      -0.4375    0.0625    0.0625
  band No.  band energies     occupation 
      1       2.7197      2.00000
      2       4.3721      2.00000
      3       4.4824      2.00000
      4       6.0058      2.01580
      5       6.3716      1.29100
      6       8.2349      0.00000
      7      12.2355      0.00000
      8      22.5206      0.00000
      9      24.6360      0.00000

 k-point     6 :      -0.3125    0.0625    0.0625
  band No.  band energies     occupation 
      1       2.7567      2.00000
      2       4.4844      2.00000
      3       4.5993      2.00000
      4       5.2423      2.00000
      5       6.1710      2.07018
      6       6.4328      0.77992
      7      15.4476      0.00000
      8      23.0771      0.00000
      9      24.8739      0.00000

 k-point     7 :      -0.1875    0.0625    0.0625
  band No.  band energies     occupation 
      1       2.2750      2.00000
      2       4.2360      2.00000
      3       4.6831      2.00000
      4       4.7164      2.00000
      5       5.5159      2.00000
      6       5.7573      2.00004
      7      19.8576      0.00000
      8      23.9046      0.00000
      9      25.5923      0.00000

 k-point     8 :      -0.0625    0.0625    0.0625
  band No.  band energies     occupation 
      1       1.2897      2.00000
      2       4.2886      2.00000
      3       4.5814      2.00000
      4       4.5852      2.00000
      5       5.4071      2.00000
      6       5.5968      2.00000
      7      23.3260      0.00000
      8      24.7092      0.00000
      9      26.1386      0.00000

 k-point     9 :       0.1875    0.1875    0.0625
  band No.  band energies     occupation 
      1       1.8567      2.00000
      2       4.0580      2.00000
      3       4.7816      2.00000
      4       4.7988      2.00000
      5       5.2417      2.00000
      6       5.7179      2.00001
      7      22.9420      0.00000
      8      24.0655      0.00000
      9      24.8221      0.00000

 k-point    10 :       0.3125    0.1875    0.0625
  band No.  band energies     occupation 
      1       2.7450      2.00000
      2       3.8525      2.00000
      3       4.6531      2.00000
      4       5.0642      2.00000
      5       5.5140      2.00000
      6       6.0984      2.05161
      7      20.2586      0.00000
      8      22.1259      0.00000
      9      24.6195      0.00000

 k-point    11 :       0.4375    0.1875    0.0625
  band No.  band energies     occupation 
      1       3.1245      2.00000
      2       4.2487      2.00000
      3       4.4805      2.00000
      4       4.9725      2.00000
      5       6.1595      2.07088
      6       7.4633      0.00000
      7      15.8105      0.00000
      8      21.6629      0.00000
      9      22.7514      0.00000

 k-point    12 :      -0.4375    0.1875    0.0625
  band No.  band energies     occupation 
      1       3.0897      2.00000
      2       4.1210      2.00000
      3       4.8137      2.00000
      4       5.1152      2.00000
      5       6.3276      1.61390
      6       9.7084      0.00000
      7      12.3570      0.00000
      8      21.2302      0.00000
      9      22.0879      0.00000

 k-point    13 :      -0.3125    0.1875    0.0625
  band No.  band energies     occupation 
      1       3.1676      2.00000
      2       4.2183      2.00000
      3       4.7505      2.00000
      4       4.9445      2.00000
      5       6.0150      2.01827
      6       8.3084      0.00000
      7      14.5083      0.00000
      8      20.5756      0.00000
      9      23.1986      0.00000

 k-point    14 :      -0.1875    0.1875    0.0625
  band No.  band energies     occupation 
      1       3.0587      2.00000
      2       3.9935      2.00000
      3       4.5239      2.00000
      4       5.0368      2.00000
      5       5.3982      2.00000
      6       6.6392     -0.06965
      7      18.7798      0.00000
      8      20.7829      0.00000
      9      24.9148      0.00000

 k-point    15 :      -0.0625    0.1875    0.0625
  band No.  band energies     occupation 
      1       2.1031      2.00000
      2       4.0889      2.00000
      3       4.7180      2.00000
      4       4.7988      2.00000
      5       5.3101      2.00000
      6       5.7982      2.00015
      7      21.4794      0.00000
      8      23.1177      0.00000
      9      25.7207      0.00000

 k-point    16 :       0.3125    0.3125    0.0625
  band No.  band energies     occupation 
      1       3.0021      2.00000
      2       3.4727      2.00000
      3       5.1299      2.00000
      4       5.4684      2.00000
      5       5.9467      2.00541
      6       6.0614      2.03488
      7      20.5784      0.00000
      8      21.5735      0.00000
      9      22.2597      0.00000

 k-point    17 :       0.4375    0.3125    0.0625
  band No.  band energies     occupation 
      1       3.1593      2.00000
      2       3.3656      2.00000
      3       5.0609      2.00000
      4       5.7628      2.00005
      5       6.2083      2.04835
      6       7.7209      0.00000
      7      17.9405      0.00000
      8      19.6921      0.00000
      9      19.9663      0.00000

 k-point    18 :      -0.4375    0.3125    0.0625
  band No.  band energies     occupation 
      1       3.2439      2.00000
      2       3.6842      2.00000
      3       4.7902      2.00000
      4       5.5148      2.00000
      5       6.3798      1.22396
      6      10.5651      0.00000
      7      13.9975      0.00000
      8      17.9344      0.00000
      9      20.1055      0.00000

 k-point    19 :      -0.3125    0.3125    0.0625
  band No.  band energies     occupation 
      1       3.5557      2.00000
      2       3.9861      2.00000
      3       4.3948      2.00000
      4       5.3403      2.00000
      5       6.0399      2.02638
      6      10.7125      0.00000
      7      14.2545      0.00000
      8      16.6596      0.00000
      9      21.5421      0.00000

 k-point    20 :      -0.1875    0.3125    0.0625
  band No.  band energies     occupation 
      1       3.5805      2.00000
      2       4.0964      2.00000
      3       4.2674      2.00000
      4       5.1799      2.00000
      5       5.6835      2.00000
      6       8.3151      0.00000
      7      16.3437      0.00000
      8      18.4224      0.00000
      9      23.2632      0.00000

 k-point    21 :      -0.0625    0.3125    0.0625
  band No.  band energies     occupation 
      1       2.8753      2.00000
      2       4.4549      2.00000
      3       4.5649      2.00000
      4       4.7759      2.00000
      5       5.8083      2.00020
      6       6.5270      0.15787
      7      17.0128      0.00000
      8      22.5695      0.00000
      9      24.4997      0.00000

 k-point    22 :       0.4375    0.4375    0.0625
  band No.  band energies     occupation 
      1       2.8380      2.00000
      2       3.0169      2.00000
      3       6.1214      2.06161
      4       6.1391      2.06758
      5       6.4116      0.95732
      6       8.4463      0.00000
      7      17.1760      0.00000
      8      18.4344      0.00000
      9      19.1303      0.00000

 k-point    23 :      -0.4375    0.4375    0.0625
  band No.  band energies     occupation 
      1       2.8868      2.00000
      2       3.0755      2.00000
      3       5.7856      2.00010
      4       6.1238      2.06251
      5       6.5249      0.16739
      6      10.5962      0.00000
      7      15.3228      0.00000
      8      16.8078      0.00000
      9      18.3966      0.00000

 k-point    24 :      -0.3125    0.4375    0.0625
  band No.  band energies     occupation 
      1       3.1982      2.00000
      2       3.5762      2.00000
      3       4.9495      2.00000
      4       5.6988      2.00001
      5       6.3467      1.48239
      6      12.2807      0.00000
      7      13.5637      0.00000
      8      15.8311      0.00000
      9      19.7509      0.00000

 k-point    25 :      -0.1875    0.4375    0.0625
  band No.  band energies     occupation 
      1       3.3634      2.00000
      2       3.9679      2.00000
      3       4.7384      2.00000
      4       5.0879      2.00000
      5       6.2149      2.04044
      6      10.6791      0.00000
      7      12.6152      0.00000
      8      18.9424      0.00000
      9      21.7079      0.00000

 k-point    26 :      -0.0625    0.4375    0.0625
  band No.  band energies     occupation 
      1       2.8718      2.00000
      2       4.3067      2.00000
      3       4.6135      2.00000
      4       5.4860      2.00000
      5       6.2823      1.85849
      6       8.2809      0.00000
      7      13.0660      0.00000
      8      22.2703      0.00000
      9      23.4735      0.00000

 k-point    27 :      -0.4375   -0.4375    0.0625
  band No.  band energies     occupation 
      1       2.7250      2.00000
      2       2.9145      2.00000
      3       6.2832      1.85496
      4       6.3698      1.30533
      5       6.5386      0.10951
      6       9.7952      0.00000
      7      15.3373      0.00000
      8      17.8885      0.00000
      9      18.5702      0.00000

 k-point    28 :      -0.3125   -0.4375    0.0625
  band No.  band energies     occupation 
      1       2.9999      2.00000
      2       3.1750      2.00000
      3       5.4878      2.00000
      4       6.0430      2.02751
      5       6.3942      1.10454
      6       9.1903      0.00000
      7      16.8558      0.00000
      8      17.6446      0.00000
      9      18.8873      0.00000

 k-point    29 :      -0.1875   -0.4375    0.0625
  band No.  band energies     occupation 
      1       3.2460      2.00000
      2       3.9218      2.00000
      3       4.5938      2.00000
      4       5.2412      2.00000
      5       6.3416      1.51854
      6       8.8615      0.00000
      7      14.7811      0.00000
      8      20.3822      0.00000
      9      20.7774      0.00000

 k-point    30 :      -0.3125   -0.3125    0.0625
  band No.  band energies     occupation 
      1       2.9986      2.00000
      2       3.2108      2.00000
      3       5.6722      2.00000
      4       5.8424      2.00049
      5       6.2424      1.99040
      6       6.9834     -0.00035
      7      19.2948      0.00000
      8      19.7717      0.00000
      9      20.1718      0.00000

 k-point    31 :      -0.1875   -0.3125    0.0625
  band No.  band energies     occupation 
      1       3.1723      2.00000
      2       3.6029      2.00000
      3       4.6883      2.00000
      4       5.3994      2.00000
      5       5.9181      2.00298
      6       6.6520     -0.07091
      7      19.0598      0.00000
      8      20.9169      0.00000
      9      22.4183      0.00000

 k-point    32 :      -0.1875   -0.1875    0.0625
  band No.  band energies     occupation 
      1       2.5495      2.00000
      2       3.7693      2.00000
      3       4.8824      2.00000
      4       5.1030      2.00000
      5       5.3788      2.00000
      6       5.8796      2.00124
      7      21.8590      0.00000
      8      23.1908      0.00000
      9      23.8782      0.00000

 k-point    33 :       0.1875    0.1875    0.1875
  band No.  band energies     occupation 
      1       1.8255      2.00000
      2       4.2866      2.00000
      3       4.6436      2.00000
      4       4.6436      2.00000
      5       5.5295      2.00000
      6       5.5295      2.00000
      7      21.2447      0.00000
      8      24.0976      0.00000
      9      27.1273      0.00000

 k-point    34 :       0.3125    0.1875    0.1875
  band No.  band energies     occupation 
      1       2.5448      2.00000
      2       4.0814      2.00000
      3       4.6796      2.00000
      4       4.8673      2.00000
      5       5.2512      2.00000
      6       6.1224      2.06197
      7      20.0697      0.00000
      8      21.9519      0.00000
      9      26.1479      0.00000

 k-point    35 :       0.4375    0.1875    0.1875
  band No.  band energies     occupation 
      1       3.3585      2.00000
      2       4.1000      2.00000
      3       4.4845      2.00000
      4       5.0008      2.00000
      5       5.4208      2.00000
      6       7.3558      0.00000
      7      17.4767      0.00000
      8      19.5279      0.00000
      9      24.8516      0.00000

 k-point    36 :      -0.4375    0.1875    0.1875
  band No.  band energies     occupation 
      1       3.2436      2.00000
      2       4.1245      2.00000
      3       4.8894      2.00000
      4       4.9309      2.00000
      5       6.0577      2.03334
      6       9.3770      0.00000
      7      13.4286      0.00000
      8      19.6397      0.00000
      9      23.8939      0.00000

 k-point    37 :      -0.3125    0.1875    0.1875
  band No.  band energies     occupation 
      1       3.1374      2.00000
      2       4.0832      2.00000
      3       4.8451      2.00000
      4       4.9498      2.00000
      5       6.4028      1.03184
      6       9.2842      0.00000
      7      13.3034      0.00000
      8      20.7023      0.00000
      9      22.5155      0.00000

 k-point    38 :      -0.1875    0.1875    0.1875
  band No.  band energies     occupation 
      1       3.1237      2.00000
      2       3.9008      2.00000
      3       4.5756      2.00000
      4       5.1030      2.00000
      5       6.2423      1.99061
      6       6.8345     -0.00992
      7      17.3396      0.00000
      8      22.3114      0.00000
      9      22.4174      0.00000

 k-point    39 :       0.3125    0.3125    0.1875
  band No.  band energies     occupation 
      1       2.7898      2.00000
      2       4.1030      2.00000
      3       4.5850      2.00000
      4       4.8696      2.00000
      5       5.9323      2.00404
      6       6.0123      2.01753
      7      18.5529      0.00000
      8      23.5784      0.00000
      9      23.8820      0.00000

 k-point    40 :       0.4375    0.3125    0.1875
  band No.  band energies     occupation 
      1       3.4157      2.00000
      2       3.8769      2.00000
      3       4.3203      2.00000
      4       5.3251      2.00000
      5       5.7527      2.00004
      6       7.4301      0.00000
      7      17.6123      0.00000
      8      19.6519      0.00000
      9      22.7229      0.00000

 k-point    41 :      -0.4375    0.3125    0.1875
  band No.  band energies     occupation 
      1       3.7226      2.00000
      2       3.8901      2.00000
      3       4.1625      2.00000
      4       5.4249      2.00000
      5       6.0156      2.01845
      6       9.6133      0.00000
      7      15.3791      0.00000
      8      17.5291      0.00000
      9      20.8319      0.00000

 k-point    42 :      -0.3125    0.3125    0.1875
  band No.  band energies     occupation 
      1       3.5198      2.00000
      2       3.8052      2.00000
      3       4.4856      2.00000
      4       5.3511      2.00000
      5       6.3043      1.75251
      6      11.4537      0.00000
      7      12.8592      0.00000
      8      18.4150      0.00000
      9      19.3982      0.00000

 k-point    43 :      -0.1875    0.3125    0.1875
  band No.  band energies     occupation 
      1       3.4240      2.00000
      2       3.6683      2.00000
      3       4.4743      2.00000
      4       5.6372      2.00000
      5       6.0797      2.04300
      6       8.6286      0.00000
      7      16.5926      0.00000
      8      18.6356      0.00000
      9      20.2734      0.00000

 k-point    44 :       0.4375    0.4375    0.1875
  band No.  band energies     occupation 
      1       3.1571      2.00000
      2       3.6202      2.00000
      3       4.8851      2.00000
      4       5.3953      2.00000
      5       6.4003      1.05266
      6       8.1413      0.00000
      7      16.2600      0.00000
      8      20.0598      0.00000
      9      21.0234      0.00000

 k-point    45 :      -0.4375    0.4375    0.1875
  band No.  band energies     occupation 
      1       3.2830      2.00000
      2       3.4714      2.00000
      3       4.8019      2.00000
      4       5.8154      2.00024
      5       6.3425      1.51224
      6      10.1819      0.00000
      7      15.7815      0.00000
      8      17.5158      0.00000
      9      18.2490      0.00000

 k-point    46 :      -0.3125    0.4375    0.1875
  band No.  band energies     occupation 
      1       3.4393      2.00000
      2       3.8053      2.00000
      3       4.3742      2.00000
      4       5.5598      2.00000
      5       6.5187      0.19662
      6      12.9996      0.00000
      7      14.1993      0.00000
      8      15.7798      0.00000
      9      17.0524      0.00000

 k-point    47 :      -0.1875    0.4375    0.1875
  band No.  band energies     occupation 
      1       3.5871      2.00000
      2       3.8120      2.00000
      3       4.2559      2.00000
      4       5.5493      2.00000
      5       6.3201      1.66127
      6      11.2413      0.00000
      7      14.6311      0.00000
      8      16.8427      0.00000
      9      18.4592      0.00000

 k-point    48 :      -0.4375   -0.4375    0.1875
  band No.  band energies     occupation 
      1       2.9809      2.00000
      2       3.2722      2.00000
      3       5.4971      2.00000
      4       5.9365      2.00440
      5       6.4193      0.89243
      6      11.2552      0.00000
      7      14.8184      0.00000
      8      15.7962      0.00000
      9      19.6336      0.00000

 k-point    49 :      -0.3125   -0.4375    0.1875
  band No.  band energies     occupation 
      1       3.1670      2.00000
      2       3.3828      2.00000
      3       5.0539      2.00000
      4       5.8278      2.00033
      5       6.5200      0.19049
      6      11.7488      0.00000
      7      15.1131      0.00000
      8      15.9189      0.00000
      9      17.6779      0.00000

 k-point    50 :      -0.3125   -0.3125    0.1875
  band No.  band energies     occupation 
      1       3.0628      2.00000
      2       3.3889      2.00000
      3       5.2602      2.00000
      4       5.7011      2.00001
      5       6.4542      0.60894
      6       9.7346      0.00000
      7      15.4029      0.00000
      8      17.6388      0.00000
      9      20.1090      0.00000

 k-point    51 :       0.3125    0.3125    0.3125
  band No.  band energies     occupation 
      1       2.6275      2.00000
      2       4.5864      2.00000
      3       4.5864      2.00000
      4       5.0571      2.00000
      5       5.8876      2.00150
      6       5.8876      2.00150
      7      16.8106      0.00000
      8      23.4214      0.00000
      9      26.5140      0.00000

 k-point    52 :       0.4375    0.3125    0.3125
  band No.  band energies     occupation 
      1       3.0010      2.00000
      2       4.3893      2.00000
      3       4.7243      2.00000
      4       4.9058      2.00000
      5       5.7683      2.00006
      6       7.2602      0.00000
      7      15.6659      0.00000
      8      21.5130      0.00000
      9      24.3634      0.00000

 k-point    53 :      -0.4375    0.3125    0.3125
  band No.  band energies     occupation 
      1       3.5888      2.00000
      2       4.0977      2.00000
      3       4.4085      2.00000
      4       5.1569      2.00000
      5       5.7958      2.00014
      6       9.3796      0.00000
      7      15.2334      0.00000
      8      17.3981      0.00000
      9      23.9604      0.00000

 k-point    54 :      -0.3125    0.3125    0.3125
  band No.  band energies     occupation 
      1       3.3240      2.00000
      2       3.8455      2.00000
      3       4.7047      2.00000
      4       5.4950      2.00000
      5       6.1557      2.07066
      6      11.9985      0.00000
      7      13.2043      0.00000
      8      16.1081      0.00000
      9      21.5205      0.00000

 k-point    55 :       0.4375    0.4375    0.3125
  band No.  band energies     occupation 
      1       2.9396      2.00000
      2       4.3074      2.00000
      3       4.7256      2.00000
      4       5.0268      2.00000
      5       6.3548      1.42190
      6       7.6987      0.00000
      7      14.2715      0.00000
      8      22.5288      0.00000
      9      23.5284      0.00000

 k-point    56 :      -0.4375    0.4375    0.3125
  band No.  band energies     occupation 
      1       3.3629      2.00000
      2       3.9801      2.00000
      3       4.6236      2.00000
      4       5.1257      2.00000
      5       6.2237      2.02752
      6       9.7342      0.00000
      7      13.5507      0.00000
      8      19.8060      0.00000
      9      20.9551      0.00000

 k-point    57 :      -0.3125    0.4375    0.3125
  band No.  band energies     occupation 
      1       3.5083      2.00000
      2       3.8393      2.00000
      3       4.3888      2.00000
      4       5.4951      2.00000
      5       6.3196      1.66407
      6      12.3442      0.00000
      7      13.4643      0.00000
      8      16.1942      0.00000
      9      19.1100      0.00000

 k-point    58 :      -0.4375   -0.4375    0.3125
  band No.  band energies     occupation 
      1       3.2809      2.00000
      2       3.9072      2.00000
      3       4.7440      2.00000
      4       5.2355      2.00000
      5       6.3140      1.69771
      6      11.0645      0.00000
      7      12.6339      0.00000
      8      18.3215      0.00000
      9      21.8485      0.00000

 k-point    59 :       0.4375    0.4375    0.4375
  band No.  band energies     occupation 
      1       2.6607      2.00000
      2       4.4427      2.00000
      3       4.4427      2.00000
      4       6.3026      1.76133
      5       6.3026      1.76133
      6       7.2567      0.00000
      7      12.9451      0.00000
      8      22.6545      0.00000
      9      25.3662      0.00000

 k-point    60 :      -0.4375    0.4375    0.4375
  band No.  band energies     occupation 
      1       2.9230      2.00000
      2       4.2489      2.00000
      3       4.6396      2.00000
      4       5.4898      2.00000
      5       6.2806      1.86598
      6       9.0958      0.00000
      7      12.3008      0.00000
      8      21.6946      0.00000
      9      23.7076      0.00000


--------------------------------------------------------------------------------------------------------


 soft charge-density along one line, spin component           1
         0         1         2         3         4         5         6         7         8         9
x     5.7657    0.0000    1.0755    0.0000   -0.3069    0.0000   -0.0412    0.0000    0.0185    0.0000
x     0.0020    0.0000    0.0000    0.0000    0.0000    0.0000
y     5.7657    0.0000    1.0755    0.0000   -0.3069    0.0000   -0.0412    0.0000    0.0185    0.0000
y     0.0020    0.0000    0.0000    0.0000    0.0000    0.0000
z     5.7657    0.0000    1.0755    0.0000   -0.3069    0.0000   -0.0412    0.0000    0.0185    0.0000
z     0.0020    0.0000    0.0000    0.0000    0.0000    0.0000
 total charge-density along one line
x    10.0000    0.0000    4.0754    0.0000    0.6381    0.0000    0.0009    0.0000    0.0031    0.0000
x     0.0048    0.0000   -0.0011    0.0000    0.0005    0.0000   -0.0002    0.0000    0.0001    0.0000
x     0.0000    0.0000    0.0000    0.0000    0.0000    0.0000    0.0000    0.0000    0.0000    0.0000
y    10.0000    0.0000    4.0754    0.0000    0.6381    0.0000    0.0009    0.0000    0.0031    0.0000
y     0.0048    0.0000   -0.0011    0.0000    0.0005    0.0000   -0.0002    0.0000    0.0001    0.0000
y     0.0000    0.0000    0.0000    0.0000    0.0000    0.0000    0.0000    0.0000    0.0000    0.0000
z    10.0000    0.0000    4.0754    0.0000    0.6381    0.0000    0.0009    0.0000    0.0031    0.0000
z     0.0048    0.0000   -0.0011    0.0000    0.0005    0.0000   -0.0002    0.0000    0.0001    0.0000
z     0.0000    0.0000    0.0000    0.0000    0.0000    0.0000    0.0000    0.0000    0.0000    0.0000
 
 pseudopotential strength for first ion, spin component:           1
 -3.483   0.000   0.000  -0.013   0.000  -3.673   0.000   0.000
  0.000  -3.473   0.000   0.000  -0.013   0.000  -3.664   0.000
  0.000   0.000  -3.492   0.000   0.000   0.000   0.000  -3.682
 -0.013   0.000   0.000  -3.473   0.000  -0.013   0.000   0.000
  0.000  -0.013   0.000   0.000  -3.483   0.000  -0.013   0.000
 -3.673   0.000   0.000  -0.013   0.000  -3.833   0.000   0.000
  0.000  -3.664   0.000   0.000  -0.013   0.000  -3.824   0.000
  0.000   0.000  -3.682   0.000   0.000   0.000   0.000  -3.841
 -0.013   0.000   0.000  -3.664   0.000  -0.012   0.000   0.000
  0.000  -0.013   0.000   0.000  -3.673   0.000  -0.012   0.000
  0.000   0.000   0.000   0.000   0.000   0.000   0.000   0.000
  0.000   0.000   0.000   0.000   0.000   0.000   0.000   0.000
  0.000   0.000   0.000   0.000   0.000   0.000   0.000   0.000
  0.000   0.000   0.000   0.000   0.000   0.000   0.000   0.000
  0.000   0.000   0.000   0.000   0.000   0.000   0.000   0.000
  0.000   0.000   0.000   0.000   0.000   0.000   0.000   0.000
  0.000   0.000   0.000   0.000   0.000   0.000   0.000   0.000
  0.000   0.000   0.000   0.000   0.000   0.000   0.000   0.000
 total augmentation occupancy for first ion, spin component:           1
  2.382   0.000   0.000  -0.203   0.000  -0.860   0.000   0.000   0.046   0.000   0.000   0.000   0.000   0.000   0.000   0.000
  0.000   2.525   0.000   0.000  -0.203   0.000  -0.892   0.000   0.000   0.046   0.000   0.000   0.000   0.000   0.000   0.000
  0.000   0.000   2.238   0.000   0.000   0.000   0.000  -0.827   0.000   0.000   0.000   0.000   0.000   0.000   0.000   0.000
 -0.203   0.000   0.000   2.525   0.000   0.046   0.000   0.000  -0.892   0.000   0.000   0.000   0.000   0.000   0.000   0.000
  0.000  -0.203   0.000   0.000   2.382   0.000   0.046   0.000   0.000  -0.860   0.000   0.000   0.000   0.000   0.000   0.000
 -0.860   0.000   0.000   0.046   0.000   1.119   0.000   0.000   0.058   0.000   0.000   0.000   0.000   0.000   0.000   0.000
  0.000  -0.892   0.000   0.000   0.046   0.000   1.078   0.000   0.000   0.058   0.000   0.000   0.000   0.000   0.000   0.000
  0.000   0.000  -0.827   0.000   0.000   0.000   0.000   1.160   0.000   0.000   0.000   0.000   0.000   0.000   0.000   0.000
  0.046   0.000   0.000  -0.892   0.000   0.058   0.000   0.000   1.078   0.000   0.000   0.000   0.000   0.000   0.000   0.000
  0.000   0.046   0.000   0.000  -0.860   0.000   0.058   0.000   0.000   1.119   0.000   0.000   0.000   0.000   0.000   0.000
  0.000   0.000   0.000   0.000   0.000   0.000   0.000   0.000   0.000   0.000   1.579  -0.230   0.000   0.000   0.000   0.000
  0.000   0.000   0.000   0.000   0.000   0.000   0.000   0.000   0.000   0.000  -0.230   0.035   0.000   0.000   0.000   0.000
  0.000   0.000   0.000   0.000   0.000   0.000   0.000   0.000   0.000   0.000   0.000   0.000   0.149   0.000   0.000  -0.009
  0.000   0.000   0.000   0.000   0.000   0.000   0.000   0.000   0.000   0.000   0.000   0.000   0.000   0.149   0.000   0.000
  0.000   0.000   0.000   0.000   0.000   0.000   0.000   0.000   0.000   0.000   0.000   0.000   0.000   0.000   0.149   0.000
  0.000   0.000   0.000   0.000   0.000   0.000   0.000   0.000   0.000   0.000   0.000   0.000  -0.009   0.000   0.000   0.001
  0.000   0.000   0.000   0.000   0.000   0.000   0.000   0.000   0.000   0.000   0.000   0.000   0.000  -0.009   0.000   0.000
  0.000   0.000   0.000   0.000   0.000   0.000   0.000   0.000   0.000   0.000   0.000   0.000   0.000   0.000  -0.009   0.000


------------------------ aborting loop because EDIFF is reached ----------------------------------------


    CHARGE:  cpu time    0.05: real time    0.05
    FORLOC:  cpu time    0.00: real time    0.00
    FORNL :  cpu time    0.08: real time    0.08
    STRESS:  cpu time    0.28: real time    0.28
    FORCOR:  cpu time    0.02: real time    0.03
    FORHAR:  cpu time    0.01: real time    0.02
    MIXING:  cpu time    0.00: real time    0.00
    OFIELD:  cpu time    0.00: real time    0.00

  FORCE on cell =-STRESS in cart. coord.  units (eV):
  Direction    XX          YY          ZZ          XY          YZ          ZX
  --------------------------------------------------------------------------------------
  Alpha Z    35.15786    35.15786    35.15786
  Ewald    -261.91342  -261.91342  -261.91342     0.00000     0.00000     0.00000
  Hartree    46.96616    46.96616    46.96616     0.00000     0.00000     0.00000
  E(xc)     -51.87858   -51.87858   -51.87858     0.00000     0.00000     0.00000
  Local      27.73143    27.73127    27.73123     0.00014     0.00006     0.00010
  n-local   -10.80794    -8.98038    -5.35986     0.49581    -0.16317     2.36447
  augment    74.47706    74.47723    74.47727    -0.00014    -0.00006    -0.00010
  Kinetic   134.56931   134.64744   137.47728     0.24381    -0.49501     1.88161
  Fock        0.00000     0.00000     0.00000     0.00000     0.00000     0.00000
  -------------------------------------------------------------------------------------
  Total      -2.27753    -2.27753    -2.27753     0.00000     0.00000     0.00000
  in kB    -196.84049  -196.84049  -196.84049     0.00000     0.00000     0.00000
  external pressure =     -196.84 kB  Pullay stress =        0.00 kB


 VOLUME and BASIS-vectors are now :
 -----------------------------------------------------------------------------
  energy-cutoff  :      350.00
  volume of cell :       18.54
      direct lattice vectors                 reciprocal lattice vectors
     2.970697009  0.000000000  0.000000000     0.336621337 -0.194348420 -0.137425085
     1.485348505  2.572699077  0.000000000     0.000000000  0.388696839 -0.137425085
     1.485348505  0.857566359  2.425563951     0.000000000  0.000000000  0.412275256

  length of vectors
     2.970697009  2.970697009  2.970697009     0.412275256  0.412275256  0.412275256


 FORCES acting on ions
    electron-ion (+dipol)            ewald-force                    non-local-force                 convergence-correction
 -----------------------------------------------------------------------------------------------
   -.371E-13 -.688E-14 0.273E-14   0.191E-15 0.470E-15 0.105E-15   0.146E-21 -.529E-22 0.000E+00   -.235E-13 -.932E-14 -.260E-13
 -----------------------------------------------------------------------------------------------
   -.371E-13 -.688E-14 0.273E-14   0.191E-15 0.470E-15 0.105E-15   0.146E-21 -.529E-22 0.000E+00   -.235E-13 -.932E-14 -.260E-13
 
 
 POSITION                                       TOTAL-FORCE (eV/Angst)
 -----------------------------------------------------------------------------------
      0.00000      0.00000      0.00000         0.000000      0.000000      0.000000
 -----------------------------------------------------------------------------------
    total drift:                                0.000000      0.000000      0.000000


--------------------------------------------------------------------------------------------------------



  FREE ENERGIE OF THE ION-ELECTRON SYSTEM (eV)
  ---------------------------------------------------
  free  energy   TOTEN  =        -4.98497451 eV

  energy  without entropy=       -4.97724054  energy(sigma->0) =       -4.98239652
 


--------------------------------------------------------------------------------------------------------


    POTLOK:  cpu time    0.03: real time    0.03


--------------------------------------------------------------------------------------------------------


 stress matrix after NEB project (eV)
     -2.27753      0.00000      0.00000
      0.00000     -2.27753      0.00000
      0.00000      0.00000     -2.27753
  FORCES: max atom, RMS     0.000000    0.000000
  FORCE total and by dimension    0.000000    0.000000
  Stress total and by dimension    3.944796    2.277529


--------------------------------------------------------------------------------------------------------


  
 reached required accuracy - stopping structural energy minimisation
 writing wavefunctions
     LOOP+:  cpu time    6.77: real time    7.24
    4ORBIT:  cpu time    0.00: real time    0.00

 total amount of memory used by VASP on root node    36350. kBytes
========================================================================

   base      :      30000. kBytes
   nonl-proj :       2484. kBytes
   grid      :       1216. kBytes
   one-center:         15. kBytes
   wavefun   :       2635. kBytes
 
  
  
 General timing and accounting informations for this job:
 ========================================================
  
                  Total CPU time used (sec):        7.174
                            User time (sec):        7.083
                          System time (sec):        0.091
                         Elapsed time (sec):        7.669
  
                   Maximum memory used (kb):           0.
                   Average memory used (kb):           0.
  
                          Minor page faults:         5643
                          Major page faults:            0
                 Voluntary context switches:         2566
