<?xml version="1.0" encoding="ISO-8859-1"?>
<modeling>
 <generator>
  <i name="program" type="string">vasp </i>
  <i name="version" type="string">5.3.5  </i>
  <i name="subversion" type="string">31Mar14 (build Jan 09 2015 16:57:47) complex                          serial </i>
  <i name="platform" type="string">LinuxIFC </i>
  <i name="date" type="string">2015 03 24 </i>
  <i name="time" type="string">14:25:57 </i>
 </generator>
 <incar>
  <i type="string" name="PREC">normal</i>
  <i type="int" name="IBRION">     2</i>
  <i type="int" name="NSW">    30</i>
  <i type="int" name="ISIF">     2</i>
  <i name="ENCUT">    350.00000000</i>
 </incar>
 <kpoints>
  <generation param="Monkhorst-Pack">
   <v type="int" name="divisions">       8        8        8 </v>
   <v name="usershift">      0.00000000       0.00000000       0.00000000 </v>
   <v name="genvec1">      0.12500000       0.00000000       0.00000000 </v>
   <v name="genvec2">      0.00000000       0.12500000       0.00000000 </v>
   <v name="genvec3">      0.00000000       0.00000000       0.12500000 </v>
   <v name="shift">      0.50000000       0.50000000       0.50000000 </v>
  </generation>
  <varray name="kpointlist" >
   <v>       0.06250000       0.06250000       0.06250000 </v>
   <v>       0.18750000       0.06250000       0.06250000 </v>
   <v>       0.31250000       0.06250000       0.06250000 </v>
   <v>       0.43750000       0.06250000       0.06250000 </v>
   <v>      -0.43750000       0.06250000       0.06250000 </v>
   <v>      -0.31250000       0.06250000       0.06250000 </v>
   <v>      -0.18750000       0.06250000       0.06250000 </v>
   <v>      -0.06250000       0.06250000       0.06250000 </v>
   <v>       0.18750000       0.18750000       0.06250000 </v>
   <v>       0.31250000       0.18750000       0.06250000 </v>
   <v>       0.43750000       0.18750000       0.06250000 </v>
   <v>      -0.43750000       0.18750000       0.06250000 </v>
   <v>      -0.31250000       0.18750000       0.06250000 </v>
   <v>      -0.18750000       0.18750000       0.06250000 </v>
   <v>      -0.06250000       0.18750000       0.06250000 </v>
   <v>       0.31250000       0.31250000       0.06250000 </v>
   <v>       0.43750000       0.31250000       0.06250000 </v>
   <v>      -0.43750000       0.31250000       0.06250000 </v>
   <v>      -0.31250000       0.31250000       0.06250000 </v>
   <v>      -0.18750000       0.31250000       0.06250000 </v>
   <v>      -0.06250000       0.31250000       0.06250000 </v>
   <v>       0.43750000       0.43750000       0.06250000 </v>
   <v>      -0.43750000       0.43750000       0.06250000 </v>
   <v>      -0.31250000       0.43750000       0.06250000 </v>
   <v>      -0.18750000       0.43750000       0.06250000 </v>
   <v>      -0.06250000       0.43750000       0.06250000 </v>
   <v>      -0.43750000      -0.43750000       0.06250000 </v>
   <v>      -0.31250000      -0.43750000       0.06250000 </v>
   <v>      -0.18750000      -0.43750000       0.06250000 </v>
   <v>      -0.31250000      -0.31250000       0.06250000 </v>
   <v>      -0.18750000      -0.31250000       0.06250000 </v>
   <v>      -0.18750000      -0.18750000       0.06250000 </v>
   <v>       0.18750000       0.18750000       0.18750000 </v>
   <v>       0.31250000       0.18750000       0.18750000 </v>
   <v>       0.43750000       0.18750000       0.18750000 </v>
   <v>      -0.43750000       0.18750000       0.18750000 </v>
   <v>      -0.31250000       0.18750000       0.18750000 </v>
   <v>      -0.18750000       0.18750000       0.18750000 </v>
   <v>       0.31250000       0.31250000       0.18750000 </v>
   <v>       0.43750000       0.31250000       0.18750000 </v>
   <v>      -0.43750000       0.31250000       0.18750000 </v>
   <v>      -0.31250000       0.31250000       0.18750000 </v>
   <v>      -0.18750000       0.31250000       0.18750000 </v>
   <v>       0.43750000       0.43750000       0.18750000 </v>
   <v>      -0.43750000       0.43750000       0.18750000 </v>
   <v>      -0.31250000       0.43750000       0.18750000 </v>
   <v>      -0.18750000       0.43750000       0.18750000 </v>
   <v>      -0.43750000      -0.43750000       0.18750000 </v>
   <v>      -0.31250000      -0.43750000       0.18750000 </v>
   <v>      -0.31250000      -0.31250000       0.18750000 </v>
   <v>       0.31250000       0.31250000       0.31250000 </v>
   <v>       0.43750000       0.31250000       0.31250000 </v>
   <v>      -0.43750000       0.31250000       0.31250000 </v>
   <v>      -0.31250000       0.31250000       0.31250000 </v>
   <v>       0.43750000       0.43750000       0.31250000 </v>
   <v>      -0.43750000       0.43750000       0.31250000 </v>
   <v>      -0.31250000       0.43750000       0.31250000 </v>
   <v>      -0.43750000      -0.43750000       0.31250000 </v>
   <v>       0.43750000       0.43750000       0.43750000 </v>
   <v>      -0.43750000       0.43750000       0.43750000 </v>
  </varray>
  <varray name="weights" >
   <v>       0.00390625 </v>
   <v>       0.01171875 </v>
   <v>       0.01171875 </v>
   <v>       0.01171875 </v>
   <v>       0.01171875 </v>
   <v>       0.01171875 </v>
   <v>       0.01171875 </v>
   <v>       0.01171875 </v>
   <v>       0.01171875 </v>
   <v>       0.02343750 </v>
   <v>       0.02343750 </v>
   <v>       0.02343750 </v>
   <v>       0.02343750 </v>
   <v>       0.02343750 </v>
   <v>       0.02343750 </v>
   <v>       0.01171875 </v>
   <v>       0.02343750 </v>
   <v>       0.02343750 </v>
   <v>       0.02343750 </v>
   <v>       0.02343750 </v>
   <v>       0.02343750 </v>
   <v>       0.01171875 </v>
   <v>       0.02343750 </v>
   <v>       0.02343750 </v>
   <v>       0.02343750 </v>
   <v>       0.02343750 </v>
   <v>       0.01171875 </v>
   <v>       0.02343750 </v>
   <v>       0.02343750 </v>
   <v>       0.01171875 </v>
   <v>       0.02343750 </v>
   <v>       0.01171875 </v>
   <v>       0.00390625 </v>
   <v>       0.01171875 </v>
   <v>       0.01171875 </v>
   <v>       0.01171875 </v>
   <v>       0.01171875 </v>
   <v>       0.01171875 </v>
   <v>       0.01171875 </v>
   <v>       0.02343750 </v>
   <v>       0.02343750 </v>
   <v>       0.02343750 </v>
   <v>       0.02343750 </v>
   <v>       0.01171875 </v>
   <v>       0.02343750 </v>
   <v>       0.02343750 </v>
   <v>       0.02343750 </v>
   <v>       0.01171875 </v>
   <v>       0.02343750 </v>
   <v>       0.01171875 </v>
   <v>       0.00390625 </v>
   <v>       0.01171875 </v>
   <v>       0.01171875 </v>
   <v>       0.01171875 </v>
   <v>       0.01171875 </v>
   <v>       0.02343750 </v>
   <v>       0.02343750 </v>
   <v>       0.01171875 </v>
   <v>       0.00390625 </v>
   <v>       0.01171875 </v>
  </varray>
 </kpoints>
 <parameters>
  <separator name="general" >
   <i type="string" name="SYSTEM">unknown system</i>
   <i type="logical" name="LCOMPAT"> F  </i>
  </separator>
  <separator name="electronic" >
   <i type="string" name="PREC">normal</i>
   <i name="ENMAX">    350.00000000</i>
   <i name="ENAUG">    416.23000000</i>
   <i name="EDIFF">      0.00010000</i>
   <i type="int" name="IALGO">    38</i>
   <i type="int" name="IWAVPR">    11</i>
   <i type="int" name="NBANDS">     9</i>
   <i name="NELECT">     10.00000000</i>
   <i type="int" name="TURBO">     0</i>
   <i type="int" name="IRESTART">     0</i>
   <i type="int" name="NREBOOT">     0</i>
   <i type="int" name="NMIN">     0</i>
   <i name="EREF">      0.00000000</i>
   <separator name="electronic smearing" >
    <i type="int" name="ISMEAR">     1</i>
    <i name="SIGMA">      0.20000000</i>
    <i name="KSPACING">      0.50000000</i>
    <i type="logical" name="KGAMMA"> T  </i>
   </separator>
   <separator name="electronic projectors" >
    <i type="logical" name="LREAL"> F  </i>
    <v name="ROPT">      0.00000000</v>
    <i type="int" name="LMAXPAW">  -100</i>
    <i type="int" name="LMAXMIX">     2</i>
    <i type="logical" name="NLSPLINE"> F  </i>
   </separator>
   <separator name="electronic startup" >
    <i type="int" name="ISTART">     0</i>
    <i type="int" name="ICHARG">     2</i>
    <i type="int" name="INIWAV">     1</i>
   </separator>
   <separator name="electronic spin" >
    <i type="int" name="ISPIN">     1</i>
    <i type="logical" name="LNONCOLLINEAR"> F  </i>
    <v name="MAGMOM">      1.00000000</v>
    <i name="NUPDOWN">     -1.00000000</i>
    <i type="logical" name="LSORBIT"> F  </i>
    <v name="SAXIS">      0.00000000      0.00000000      1.00000000</v>
    <i type="logical" name="LSPIRAL"> F  </i>
    <v name="QSPIRAL">      0.00000000      0.00000000      0.00000000</v>
    <i type="logical" name="LZEROZ"> F  </i>
   </separator>
   <separator name="electronic exchange-correlation" >
    <i type="logical" name="LASPH"> F  </i>
    <i type="logical" name="LMETAGGA"> F  </i>
   </separator>
   <separator name="electronic convergence" >
    <i type="int" name="NELM">    60</i>
    <i type="int" name="NELMDL">    -5</i>
    <i type="int" name="NELMIN">     2</i>
    <i name="ENINI">    350.00000000</i>
    <separator name="electronic convergence detail" >
     <i type="logical" name="LDIAG"> T  </i>
     <i type="logical" name="LSUBROT"> F  </i>
     <i name="WEIMIN">      0.00100000</i>
     <i name="EBREAK">      0.00000278</i>
     <i name="DEPER">      0.30000000</i>
     <i type="int" name="NRMM">     4</i>
     <i name="TIME">      0.40000000</i>
    </separator>
   </separator>
   <separator name="electronic mixer" >
    <i name="AMIX">      0.40000000</i>
    <i name="BMIX">      1.00000000</i>
    <i name="AMIN">      0.10000000</i>
    <i name="AMIX_MAG">      1.60000000</i>
    <i name="BMIX_MAG">      1.00000000</i>
    <separator name="electronic mixer details" >
     <i type="int" name="IMIX">     4</i>
     <i type="int" name="MAXMIX">   -45</i>
     <i name="WC">    100.00000000</i>
     <i type="int" name="INIMIX">     1</i>
     <i type="int" name="MIXPRE">     1</i>
     <i type="int" name="MREMOVE">     5</i>
    </separator>
   </separator>
   <separator name="electronic dipolcorrection" >
    <i type="logical" name="LDIPOL"> F  </i>
    <i type="logical" name="LMONO"> F  </i>
    <i type="int" name="IDIPOL">     0</i>
    <i name="EPSILON">      1.00000000</i>
    <v name="DIPOL">   -100.00000000   -100.00000000   -100.00000000</v>
    <i name="EFIELD">      0.00000000</i>
   </separator>
  </separator>
  <separator name="grids" >
   <i type="int" name="NGX">    14</i>
   <i type="int" name="NGY">    14</i>
   <i type="int" name="NGZ">    14</i>
   <i type="int" name="NGXF">    28</i>
   <i type="int" name="NGYF">    28</i>
   <i type="int" name="NGZF">    28</i>
   <i type="logical" name="ADDGRID"> F  </i>
  </separator>
  <separator name="ionic" >
   <i type="int" name="NSW">    30</i>
   <i type="int" name="IBRION">     2</i>
   <i type="int" name="ISIF">     2</i>
   <i name="PSTRESS">      0.00000000</i>
   <i name="EDIFFG">      0.00100000</i>
   <i type="int" name="NFREE">     1</i>
   <i name="POTIM">      0.50000000</i>
   <i name="SMASS">     -3.00000000</i>
   <i name="SCALEE">      1.00000000</i>
  </separator>
  <separator name="ionic md" >
   <i name="TEBEG">      0.00010000</i>
   <i name="TEEND">      0.00010000</i>
   <i type="int" name="NBLOCK">     1</i>
   <i type="int" name="KBLOCK">    30</i>
   <i type="int" name="NPACO">   256</i>
   <i name="APACO">     16.00000000</i>
  </separator>
  <separator name="symmetry" >
   <i type="int" name="ISYM">     2</i>
   <i name="SYMPREC">      0.00001000</i>
  </separator>
  <separator name="dos" >
   <i type="logical" name="LORBIT"> F  </i>
   <v name="RWIGS">     -1.00000000</v>
   <i type="int" name="NEDOS">   301</i>
   <i name="EMIN">     10.00000000</i>
   <i name="EMAX">    -10.00000000</i>
   <i name="EFERMI">      0.00000000</i>
  </separator>
  <separator name="writing" >
   <i type="int" name="NWRITE">     2</i>
   <i type="logical" name="LWAVE"> T  </i>
   <i type="logical" name="LCHARG"> T  </i>
   <i type="logical" name="LPARD"> F  </i>
   <i type="logical" name="LVTOT"> F  </i>
   <i type="logical" name="LVHAR"> F  </i>
   <i type="logical" name="LELF"> F  </i>
   <i type="logical" name="LOPTICS"> F  </i>
   <v name="STM">      0.00000000      0.00000000      0.00000000      0.00000000      0.00000000      0.00000000      0.00000000</v>
  </separator>
  <separator name="performance" >
   <i type="int" name="NPAR">     1</i>
   <i type="int" name="NSIM">     4</i>
   <i type="int" name="NBLK">    -1</i>
   <i type="logical" name="LPLANE"> T  </i>
   <i type="logical" name="LSCALAPACK"> F  </i>
   <i type="logical" name="LSCAAWARE"> F  </i>
   <i type="logical" name="LSCALU"> F  </i>
   <i type="logical" name="LASYNC"> F  </i>
   <i type="logical" name="LORBITALREAL"> F  </i>
  </separator>
  <separator name="miscellaneous" >
   <i type="int" name="IDIOT">     3</i>
   <i type="logical" name="LMUSIC"> F  </i>
   <v name="POMASS">    106.42000000</v>
   <v name="DARWINR">      0.00000000</v>
   <v name="DARWINV">      1.00000000</v>
   <i type="logical" name="LCORR"> T  </i>
  </separator>
  <i type="logical" name="GGA_COMPAT"> T  </i>
  <i type="logical" name="LBERRY"> F  </i>
  <i type="int" name="ICORELEVEL">     0</i>
  <i type="logical" name="LDAU"> F  </i>
  <i type="int" name="I_CONSTRAINED_M">     0</i>
  <separator name="electronic exchange-correlation" >
   <i type="string" name="GGA">--</i>
   <i type="int" name="VOSKOWN">     0</i>
   <i type="logical" name="LHFCALC"> F  </i>
   <i type="string" name="PRECFOCK"></i>
   <i type="logical" name="LSYMGRAD"> F  </i>
   <i type="logical" name="LHFONE"> F  </i>
   <i type="logical" name="LRHFCALC"> F  </i>
   <i type="logical" name="LTHOMAS"> F  </i>
   <i type="logical" name="LMODELHF"> F  </i>
   <i name="ENCUT4O">     -1.00000000</i>
   <i type="int" name="EXXOEP">     0</i>
   <i type="int" name="FOURORBIT">     0</i>
   <i name="AEXX">      0.00000000</i>
   <i name="HFALPHA">      0.00000000</i>
   <i name="MCALPHA">      0.00000000</i>
   <i name="ALDAX">      1.00000000</i>
   <i name="AGGAX">      1.00000000</i>
   <i name="ALDAC">      1.00000000</i>
   <i name="AGGAC">      1.00000000</i>
   <i type="int" name="NKREDX">     1</i>
   <i type="int" name="NKREDY">     1</i>
   <i type="int" name="NKREDZ">     1</i>
   <i type="logical" name="SHIFTRED"> F  </i>
   <i type="logical" name="ODDONLY"> F  </i>
   <i type="logical" name="EVENONLY"> F  </i>
   <i type="int" name="LMAXFOCK">     0</i>
   <i type="int" name="NMAXFOCKAE">     0</i>
   <i type="logical" name="LFOCKAEDFT"> F  </i>
   <i name="HFSCREEN">      0.00000000</i>
   <i name="HFSCREENC">      0.00000000</i>
   <i type="int" name="NBANDSGWLOW">     0</i>
  </separator>
  <separator name="vdW DFT" >
   <i type="logical" name="LUSE_VDW"> F  </i>
   <i name="Zab_VDW">     -0.84910000</i>
   <i name="PARAM1">      0.12340000</i>
   <i name="PARAM2">      1.00000000</i>
   <i name="PARAM3">      0.00000000</i>
  </separator>
  <separator name="model GW" >
   <i type="int" name="MODEL_GW">     0</i>
   <i name="MODEL_EPS0">     11.12272832</i>
   <i name="MODEL_ALPHA">      1.00000000</i>
  </separator>
  <separator name="linear response parameters" >
   <i type="logical" name="LEPSILON"> F  </i>
   <i type="logical" name="LRPA"> F  </i>
   <i type="logical" name="LNABLA"> F  </i>
   <i type="logical" name="LVEL"> F  </i>
   <i type="int" name="KINTER">     0</i>
   <i name="CSHIFT">      0.10000000</i>
   <i name="OMEGAMAX">     -1.00000000</i>
   <i name="DEG_THRESHOLD">      0.00200000</i>
  </separator>
  <separator name="orbital magnetization" >
   <i type="logical" name="NUCIND"> F  </i>
   <v name="MAGPOS">      0.00000000      0.00000000      0.00000000</v>
   <i type="logical" name="LNICSALL"> T  </i>
   <i type="logical" name="ORBITALMAG"> F  </i>
   <i type="logical" name="LMAGBLOCH"> F  </i>
   <i type="logical" name="LCHIMAG"> F  </i>
   <i type="logical" name="LGAUGE"> T  </i>
   <i type="int" name="MAGATOM">     0</i>
   <v name="MAGDIPOL">      0.00000000      0.00000000      0.00000000</v>
   <v name="AVECCONST">      0.00000000      0.00000000      0.00000000</v>
  </separator>
  <separator name="response functions" >
   <i type="logical" name="LADDER"> F  </i>
   <i type="logical" name="LFXC"> F  </i>
   <i type="logical" name="LHARTREE"> T  </i>
   <i type="int" name="IBSE">     0</i>
   <i type="logical" name="LTCTE"> F  </i>
   <i type="logical" name="LTETE"> F  </i>
   <i type="logical" name="LTRIPLET"> F  </i>
   <i type="logical" name="LFXCEPS"> F  </i>
   <i type="logical" name="LFXHEG"> F  </i>
   <i type="logical" name="L2ORDER"> F  </i>
   <i type="logical" name="LUSEW"> F  </i>
   <i name="ENCUTGW">     -2.00000000</i>
   <i name="ENCUTGWSOFT">     -2.00000000</i>
   <i name="ENCUTLF">     -1.00000000</i>
   <i type="int" name="LMAXMP2">    -1</i>
   <i name="SCISSOR">      0.00000000</i>
   <i type="int" name="NOMEGA">     0</i>
   <i type="int" name="NOMEGAR">     0</i>
   <i type="int" name="NBANDSGW">    -1</i>
   <i type="int" name="NBANDSO">    -1</i>
   <i type="int" name="NBANDSV">    -1</i>
   <i type="int" name="NELM">     1</i>
   <i type="int" name="DIM">     3</i>
   <i type="int" name="ANTIRES">     0</i>
   <i name="OMEGAMAX">    -30.00000000</i>
   <i name="OMEGAMIN">    -30.00000000</i>
   <i name="OMEGATL">   -200.00000000</i>
   <i type="int" name="OMEGAGRID">     0</i>
   <i name="CSHIFT">     -0.10000000</i>
   <i type="logical" name="SELFENERGY"> F  </i>
   <i type="logical" name="LSPECTRAL"> F  </i>
   <i type="logical" name="ODDONLYGW"> F  </i>
   <i type="logical" name="EVENONLYGW"> F  </i>
   <i type="int" name="NKREDLFX">     1</i>
   <i type="int" name="NKREDLFY">     1</i>
   <i type="int" name="NKREDLFZ">     1</i>
   <i type="int" name="MAXMEM">  1800</i>
   <i type="int" name="TELESCOPE">     0</i>
   <i type="int" name="TAUPAR">     1</i>
  </separator>
  <separator name="External order field" >
   <i name="OFIELD_KAPPA">      0.00000000</i>
   <v name="OFIELD_K">      0.00000000      0.00000000      0.00000000</v>
   <i name="OFIELD_Q6_NEAR">      0.00000000</i>
   <i name="OFIELD_Q6_FAR">      0.00000000</i>
   <i name="OFIELD_A">      0.00000000</i>
  </separator>
 </parameters>
 <atominfo>
  <atoms>       1 </atoms>
  <types>       1 </types>
  <array name="atoms" >
   <dimension dim="1">ion</dimension>
   <field type="string">element</field>
   <field type="int">atomtype</field>
   <set>
    <rc><c>Pd</c><c>   1</c></rc>
   </set>
  </array>
  <array name="atomtypes" >
   <dimension dim="1">type</dimension>
   <field type="int">atomspertype</field>
   <field type="string">element</field>
   <field>mass</field>
   <field>valence</field>
   <field type="string">pseudopotential</field>
   <set>
    <rc><c>   1</c><c>Pd</c><c>    106.42000000</c><c>     10.00000000</c><c>  PAW_PBE Pd 04Jan2005                  </c></rc>
   </set>
  </array>
 </atominfo>
 <structure name="initialpos" >
  <crystal>
   <varray name="basis" >
    <v>       2.97069701       0.00000000       0.00000000 </v>
    <v>       1.48534850       2.57269908       0.00000000 </v>
    <v>       1.48534850       0.85756636       2.42556395 </v>
   </varray>
   <i name="volume">     18.53788054 </i>
   <varray name="rec_basis" >
    <v>       0.33662134      -0.19434842      -0.13742509 </v>
    <v>       0.00000000       0.38869684      -0.13742509 </v>
    <v>       0.00000000       0.00000000       0.41227526 </v>
   </varray>
  </crystal>
  <varray name="positions" >
   <v>       0.00000000       0.00000000       0.00000000 </v>
  </varray>
 </structure>
 <calculation>
  <scstep>
   <time name="dav">    0.65    0.65</time>
   <time name="total">    0.69    0.69</time>
   <energy>
    <i name="alphaZ">     35.15786223 </i>
    <i name="ewald">   -785.74024144 </i>
    <i name="hartreedc">   -149.07648204 </i>
    <i name="XCdc">    -29.80304964 </i>
    <i name="pawpsdc">    806.73831454 </i>
    <i name="pawaedc">   -744.51602449 </i>
    <i name="eentropy">     -0.00158583 </i>
    <i name="bandstr">     85.67831733 </i>
    <i name="atom">    809.72612850 </i>
    <i name="e_fr_energy">     28.16323917 </i>
    <i name="e_wo_entrp">     28.16482500 </i>
    <i name="e_0_energy">     28.16376778 </i>
   </energy>
  </scstep>
  <scstep>
   <time name="dav">    0.64    0.64</time>
   <time name="total">    0.65    0.73</time>
   <energy>
    <i name="e_fr_energy">     -4.86449892 </i>
    <i name="e_wo_entrp">     -4.85942714 </i>
    <i name="e_0_energy">     -4.86280833 </i>
   </energy>
  </scstep>
  <scstep>
   <time name="dav">    0.73    0.73</time>
   <time name="total">    0.74    0.75</time>
   <energy>
    <i name="e_fr_energy">     -5.17912068 </i>
    <i name="e_wo_entrp">     -5.16929791 </i>
    <i name="e_0_energy">     -5.17584642 </i>
   </energy>
  </scstep>
  <scstep>
   <time name="dav">    0.69    0.69</time>
   <time name="total">    0.70    0.73</time>
   <energy>
    <i name="e_fr_energy">     -5.18053391 </i>
    <i name="e_wo_entrp">     -5.17068614 </i>
    <i name="e_0_energy">     -5.17725132 </i>
   </energy>
  </scstep>
  <scstep>
   <time name="dav">    0.69    0.69</time>
   <time name="total">    0.75    0.82</time>
   <energy>
    <i name="e_fr_energy">     -5.18055523 </i>
    <i name="e_wo_entrp">     -5.17070695 </i>
    <i name="e_0_energy">     -5.17727247 </i>
   </energy>
  </scstep>
  <scstep>
   <time name="dav">    0.64    0.64</time>
   <time name="total">    0.73    0.75</time>
   <energy>
    <i name="e_fr_energy">     -4.98874551 </i>
    <i name="e_wo_entrp">     -4.98103784 </i>
    <i name="e_0_energy">     -4.98617628 </i>
   </energy>
  </scstep>
  <scstep>
   <time name="dav">    0.65    0.65</time>
   <time name="total">    0.74    0.76</time>
   <energy>
    <i name="e_fr_energy">     -4.98602935 </i>
    <i name="e_wo_entrp">     -4.97820063 </i>
    <i name="e_0_energy">     -4.98341978 </i>
   </energy>
  </scstep>
  <scstep>
   <time name="dav">    0.65    0.65</time>
   <time name="total">    0.74    0.90</time>
   <energy>
    <i name="e_fr_energy">     -4.98496081 </i>
    <i name="e_wo_entrp">     -4.97722253 </i>
    <i name="e_0_energy">     -4.98238138 </i>
   </energy>
  </scstep>
  <scstep>
   <time name="dav">    0.41    0.41</time>
   <time name="total">    0.45    0.46</time>
   <energy>
    <i name="alphaZ">     35.15786223 </i>
    <i name="ewald">   -785.74024144 </i>
    <i name="hartreedc">   -140.88646620 </i>
    <i name="XCdc">    -30.06146002 </i>
    <i name="pawpsdc">    879.81284293 </i>
    <i name="pawaedc">   -818.95411249 </i>
    <i name="eentropy">     -0.00773397 </i>
    <i name="bandstr">     45.96820596 </i>
    <i name="atom">    809.72612850 </i>
    <i name="e_fr_energy">     -4.98497451 </i>
    <i name="e_wo_entrp">     -4.97724054 </i>
    <i name="e_0_energy">     -4.98239652 </i>
   </energy>
  </scstep>
  <structure>
   <crystal>
    <varray name="basis" >
     <v>       2.97069701       0.00000000       0.00000000 </v>
     <v>       1.48534850       2.57269908       0.00000000 </v>
     <v>       1.48534850       0.85756636       2.42556395 </v>
    </varray>
    <i name="volume">     18.53788054 </i>
    <varray name="rec_basis" >
     <v>       0.33662134      -0.19434842      -0.13742509 </v>
     <v>       0.00000000       0.38869684      -0.13742509 </v>
     <v>       0.00000000       0.00000000       0.41227526 </v>
    </varray>
   </crystal>
   <varray name="positions" >
    <v>       0.00000000       0.00000000       0.00000000 </v>
   </varray>
  </structure>
  <varray name="forces" >
   <v>       0.00000000       0.00000000       0.00000000 </v>
  </varray>
  <varray name="stress" >
   <v>    -196.84048807       0.00000000       0.00000000 </v>
   <v>       0.00000000    -196.84048807       0.00000000 </v>
   <v>       0.00000000       0.00000000    -196.84048807 </v>
  </varray>
  <energy>
   <i name="e_fr_energy">     -4.98497451 </i>
   <i name="e_wo_entrp">     -4.98239652 </i>
   <i name="e_0_energy">     -0.00773397 </i>
  </energy>
  <time name="totalsc">    6.77    7.24</time>
  <eigenvalues>
   <array>
    <dimension dim="1">band</dimension>
    <dimension dim="2">kpoint</dimension>
    <dimension dim="3">spin</dimension>
    <field>eigene</field>
    <field>occ</field>
    <set>
     <set comment="spin 1">
      <set comment="kpoint 1">
       <r>    0.9861    1.0000 </r>
       <r>    4.4075    1.0000 </r>
       <r>    4.4749    1.0000 </r>
       <r>    4.4749    1.0000 </r>
       <r>    5.5320    1.0000 </r>
       <r>    5.5320    1.0000 </r>
       <r>   23.2871    0.0000 </r>
       <r>   25.8014    0.0000 </r>
       <r>   26.8036    0.0000 </r>
      </set>
      <set comment="kpoint 2">
       <r>    1.5749    1.0000 </r>
       <r>    4.2507    1.0000 </r>
       <r>    4.6251    1.0000 </r>
       <r>    4.6435    1.0000 </r>
       <r>    5.3886    1.0000 </r>
       <r>    5.6165    1.0000 </r>
       <r>   22.6407    0.0000 </r>
       <r>   23.8406    0.0000 </r>
       <r>   26.1188    0.0000 </r>
      </set>
      <set comment="kpoint 3">
       <r>    2.5626    1.0000 </r>
       <r>    4.4256    1.0000 </r>
       <r>    4.6705    1.0000 </r>
       <r>    4.6860    1.0000 </r>
       <r>    5.5581    1.0000 </r>
       <r>    6.0114    1.0086 </r>
       <r>   18.3614    0.0000 </r>
       <r>   23.3565    0.0000 </r>
       <r>   25.6238    0.0000 </r>
      </set>
      <set comment="kpoint 4">
       <r>    2.7552    1.0000 </r>
       <r>    4.4465    1.0000 </r>
       <r>    4.5265    1.0000 </r>
       <r>    5.7372    1.0000 </r>
       <r>    6.0857    1.0229 </r>
       <r>    7.0948    0.0000 </r>
       <r>   14.1265    0.0000 </r>
       <r>   22.6946    0.0000 </r>
       <r>   24.5426    0.0000 </r>
      </set>
      <set comment="kpoint 5">
       <r>    2.7197    1.0000 </r>
       <r>    4.3721    1.0000 </r>
       <r>    4.4824    1.0000 </r>
       <r>    6.0058    1.0079 </r>
       <r>    6.3716    0.6455 </r>
       <r>    8.2349    0.0000 </r>
       <r>   12.2355    0.0000 </r>
       <r>   22.5206    0.0000 </r>
       <r>   24.6360    0.0000 </r>
      </set>
      <set comment="kpoint 6">
       <r>    2.7567    1.0000 </r>
       <r>    4.4844    1.0000 </r>
       <r>    4.5993    1.0000 </r>
       <r>    5.2423    1.0000 </r>
       <r>    6.1710    1.0351 </r>
       <r>    6.4328    0.3900 </r>
       <r>   15.4476    0.0000 </r>
       <r>   23.0771    0.0000 </r>
       <r>   24.8739    0.0000 </r>
      </set>
      <set comment="kpoint 7">
       <r>    2.2750    1.0000 </r>
       <r>    4.2360    1.0000 </r>
       <r>    4.6831    1.0000 </r>
       <r>    4.7164    1.0000 </r>
       <r>    5.5159    1.0000 </r>
       <r>    5.7573    1.0000 </r>
       <r>   19.8576    0.0000 </r>
       <r>   23.9046    0.0000 </r>
       <r>   25.5923    0.0000 </r>
      </set>
      <set comment="kpoint 8">
       <r>    1.2897    1.0000 </r>
       <r>    4.2886    1.0000 </r>
       <r>    4.5814    1.0000 </r>
       <r>    4.5852    1.0000 </r>
       <r>    5.4071    1.0000 </r>
       <r>    5.5968    1.0000 </r>
       <r>   23.3260    0.0000 </r>
       <r>   24.7092    0.0000 </r>
       <r>   26.1386    0.0000 </r>
      </set>
      <set comment="kpoint 9">
       <r>    1.8567    1.0000 </r>
       <r>    4.0580    1.0000 </r>
       <r>    4.7816    1.0000 </r>
       <r>    4.7988    1.0000 </r>
       <r>    5.2417    1.0000 </r>
       <r>    5.7179    1.0000 </r>
       <r>   22.9420    0.0000 </r>
       <r>   24.0655    0.0000 </r>
       <r>   24.8221    0.0000 </r>
      </set>
      <set comment="kpoint 10">
       <r>    2.7450    1.0000 </r>
       <r>    3.8525    1.0000 </r>
       <r>    4.6531    1.0000 </r>
       <r>    5.0642    1.0000 </r>
       <r>    5.5140    1.0000 </r>
       <r>    6.0984    1.0258 </r>
       <r>   20.2586    0.0000 </r>
       <r>   22.1259    0.0000 </r>
       <r>   24.6195    0.0000 </r>
      </set>
      <set comment="kpoint 11">
       <r>    3.1245    1.0000 </r>
       <r>    4.2487    1.0000 </r>
       <r>    4.4805    1.0000 </r>
       <r>    4.9725    1.0000 </r>
       <r>    6.1595    1.0354 </r>
       <r>    7.4633    0.0000 </r>
       <r>   15.8105    0.0000 </r>
       <r>   21.6629    0.0000 </r>
       <r>   22.7514    0.0000 </r>
      </set>
      <set comment="kpoint 12">
       <r>    3.0897    1.0000 </r>
       <r>    4.1210    1.0000 </r>
       <r>    4.8137    1.0000 </r>
       <r>    5.1152    1.0000 </r>
       <r>    6.3276    0.8070 </r>
       <r>    9.7084    0.0000 </r>
       <r>   12.3570    0.0000 </r>
       <r>   21.2302    0.0000 </r>
       <r>   22.0879    0.0000 </r>
      </set>
      <set comment="kpoint 13">
       <r>    3.1676    1.0000 </r>
       <r>    4.2183    1.0000 </r>
       <r>    4.7505    1.0000 </r>
       <r>    4.9445    1.0000 </r>
       <r>    6.0150    1.0091 </r>
       <r>    8.3084    0.0000 </r>
       <r>   14.5083    0.0000 </r>
       <r>   20.5756    0.0000 </r>
       <r>   23.1986    0.0000 </r>
      </set>
      <set comment="kpoint 14">
       <r>    3.0587    1.0000 </r>
       <r>    3.9935    1.0000 </r>
       <r>    4.5239    1.0000 </r>
       <r>    5.0368    1.0000 </r>
       <r>    5.3982    1.0000 </r>
       <r>    6.6392   -0.0348 </r>
       <r>   18.7798    0.0000 </r>
       <r>   20.7829    0.0000 </r>
       <r>   24.9148    0.0000 </r>
      </set>
      <set comment="kpoint 15">
       <r>    2.1031    1.0000 </r>
       <r>    4.0889    1.0000 </r>
       <r>    4.7180    1.0000 </r>
       <r>    4.7988    1.0000 </r>
       <r>    5.3101    1.0000 </r>
       <r>    5.7982    1.0001 </r>
       <r>   21.4794    0.0000 </r>
       <r>   23.1177    0.0000 </r>
       <r>   25.7207    0.0000 </r>
      </set>
      <set comment="kpoint 16">
       <r>    3.0021    1.0000 </r>
       <r>    3.4727    1.0000 </r>
       <r>    5.1299    1.0000 </r>
       <r>    5.4684    1.0000 </r>
       <r>    5.9467    1.0027 </r>
       <r>    6.0614    1.0174 </r>
       <r>   20.5784    0.0000 </r>
       <r>   21.5735    0.0000 </r>
       <r>   22.2597    0.0000 </r>
      </set>
      <set comment="kpoint 17">
       <r>    3.1593    1.0000 </r>
       <r>    3.3656    1.0000 </r>
       <r>    5.0609    1.0000 </r>
       <r>    5.7628    1.0000 </r>
       <r>    6.2083    1.0242 </r>
       <r>    7.7209    0.0000 </r>
       <r>   17.9405    0.0000 </r>
       <r>   19.6921    0.0000 </r>
       <r>   19.9663    0.0000 </r>
      </set>
      <set comment="kpoint 18">
       <r>    3.2439    1.0000 </r>
       <r>    3.6842    1.0000 </r>
       <r>    4.7902    1.0000 </r>
       <r>    5.5148    1.0000 </r>
       <r>    6.3798    0.6120 </r>
       <r>   10.5651    0.0000 </r>
       <r>   13.9975    0.0000 </r>
       <r>   17.9344    0.0000 </r>
       <r>   20.1055    0.0000 </r>
      </set>
      <set comment="kpoint 19">
       <r>    3.5557    1.0000 </r>
       <r>    3.9861    1.0000 </r>
       <r>    4.3948    1.0000 </r>
       <r>    5.3403    1.0000 </r>
       <r>    6.0399    1.0132 </r>
       <r>   10.7125    0.0000 </r>
       <r>   14.2545    0.0000 </r>
       <r>   16.6596    0.0000 </r>
       <r>   21.5421    0.0000 </r>
      </set>
      <set comment="kpoint 20">
       <r>    3.5805    1.0000 </r>
       <r>    4.0964    1.0000 </r>
       <r>    4.2674    1.0000 </r>
       <r>    5.1799    1.0000 </r>
       <r>    5.6835    1.0000 </r>
       <r>    8.3151    0.0000 </r>
       <r>   16.3437    0.0000 </r>
       <r>   18.4224    0.0000 </r>
       <r>   23.2632    0.0000 </r>
      </set>
      <set comment="kpoint 21">
       <r>    2.8753    1.0000 </r>
       <r>    4.4549    1.0000 </r>
       <r>    4.5649    1.0000 </r>
       <r>    4.7759    1.0000 </r>
       <r>    5.8083    1.0001 </r>
       <r>    6.5270    0.0789 </r>
       <r>   17.0128    0.0000 </r>
       <r>   22.5695    0.0000 </r>
       <r>   24.4997    0.0000 </r>
      </set>
      <set comment="kpoint 22">
       <r>    2.8380    1.0000 </r>
       <r>    3.0169    1.0000 </r>
       <r>    6.1214    1.0308 </r>
       <r>    6.1391    1.0338 </r>
       <r>    6.4116    0.4787 </r>
       <r>    8.4463    0.0000 </r>
       <r>   17.1760    0.0000 </r>
       <r>   18.4344    0.0000 </r>
       <r>   19.1303    0.0000 </r>
      </set>
      <set comment="kpoint 23">
       <r>    2.8868    1.0000 </r>
       <r>    3.0755    1.0000 </r>
       <r>    5.7856    1.0001 </r>
       <r>    6.1238    1.0313 </r>
       <r>    6.5249    0.0837 </r>
       <r>   10.5962    0.0000 </r>
       <r>   15.3228    0.0000 </r>
       <r>   16.8078    0.0000 </r>
       <r>   18.3966    0.0000 </r>
      </set>
      <set comment="kpoint 24">
       <r>    3.1982    1.0000 </r>
       <r>    3.5762    1.0000 </r>
       <r>    4.9495    1.0000 </r>
       <r>    5.6988    1.0000 </r>
       <r>    6.3467    0.7412 </r>
       <r>   12.2807    0.0000 </r>
       <r>   13.5637    0.0000 </r>
       <r>   15.8311    0.0000 </r>
       <r>   19.7509    0.0000 </r>
      </set>
      <set comment="kpoint 25">
       <r>    3.3634    1.0000 </r>
       <r>    3.9679    1.0000 </r>
       <r>    4.7384    1.0000 </r>
       <r>    5.0879    1.0000 </r>
       <r>    6.2149    1.0202 </r>
       <r>   10.6791    0.0000 </r>
       <r>   12.6152    0.0000 </r>
       <r>   18.9424    0.0000 </r>
       <r>   21.7079    0.0000 </r>
      </set>
      <set comment="kpoint 26">
       <r>    2.8718    1.0000 </r>
       <r>    4.3067    1.0000 </r>
       <r>    4.6135    1.0000 </r>
       <r>    5.4860    1.0000 </r>
       <r>    6.2823    0.9292 </r>
       <r>    8.2809    0.0000 </r>
       <r>   13.0660    0.0000 </r>
       <r>   22.2703    0.0000 </r>
       <r>   23.4735    0.0000 </r>
      </set>
      <set comment="kpoint 27">
       <r>    2.7250    1.0000 </r>
       <r>    2.9145    1.0000 </r>
       <r>    6.2832    0.9275 </r>
       <r>    6.3698    0.6527 </r>
       <r>    6.5386    0.0548 </r>
       <r>    9.7952    0.0000 </r>
       <r>   15.3373    0.0000 </r>
       <r>   17.8885    0.0000 </r>
       <r>   18.5702    0.0000 </r>
      </set>
      <set comment="kpoint 28">
       <r>    2.9999    1.0000 </r>
       <r>    3.1750    1.0000 </r>
       <r>    5.4878    1.0000 </r>
       <r>    6.0430    1.0138 </r>
       <r>    6.3942    0.5523 </r>
       <r>    9.1903    0.0000 </r>
       <r>   16.8558    0.0000 </r>
       <r>   17.6446    0.0000 </r>
       <r>   18.8873    0.0000 </r>
      </set>
      <set comment="kpoint 29">
       <r>    3.2460    1.0000 </r>
       <r>    3.9218    1.0000 </r>
       <r>    4.5938    1.0000 </r>
       <r>    5.2412    1.0000 </r>
       <r>    6.3416    0.7593 </r>
       <r>    8.8615    0.0000 </r>
       <r>   14.7811    0.0000 </r>
       <r>   20.3822    0.0000 </r>
       <r>   20.7774    0.0000 </r>
      </set>
      <set comment="kpoint 30">
       <r>    2.9986    1.0000 </r>
       <r>    3.2108    1.0000 </r>
       <r>    5.6722    1.0000 </r>
       <r>    5.8424    1.0002 </r>
       <r>    6.2424    0.9952 </r>
       <r>    6.9834   -0.0002 </r>
       <r>   19.2948    0.0000 </r>
       <r>   19.7717    0.0000 </r>
       <r>   20.1718    0.0000 </r>
      </set>
      <set comment="kpoint 31">
       <r>    3.1723    1.0000 </r>
       <r>    3.6029    1.0000 </r>
       <r>    4.6883    1.0000 </r>
       <r>    5.3994    1.0000 </r>
       <r>    5.9181    1.0015 </r>
       <r>    6.6520   -0.0355 </r>
       <r>   19.0598    0.0000 </r>
       <r>   20.9169    0.0000 </r>
       <r>   22.4183    0.0000 </r>
      </set>
      <set comment="kpoint 32">
       <r>    2.5495    1.0000 </r>
       <r>    3.7693    1.0000 </r>
       <r>    4.8824    1.0000 </r>
       <r>    5.1030    1.0000 </r>
       <r>    5.3788    1.0000 </r>
       <r>    5.8796    1.0006 </r>
       <r>   21.8590    0.0000 </r>
       <r>   23.1908    0.0000 </r>
       <r>   23.8782    0.0000 </r>
      </set>
      <set comment="kpoint 33">
       <r>    1.8255    1.0000 </r>
       <r>    4.2866    1.0000 </r>
       <r>    4.6436    1.0000 </r>
       <r>    4.6436    1.0000 </r>
       <r>    5.5295    1.0000 </r>
       <r>    5.5295    1.0000 </r>
       <r>   21.2447    0.0000 </r>
       <r>   24.0976    0.0000 </r>
       <r>   27.1273    0.0000 </r>
      </set>
      <set comment="kpoint 34">
       <r>    2.5448    1.0000 </r>
       <r>    4.0814    1.0000 </r>
       <r>    4.6796    1.0000 </r>
       <r>    4.8673    1.0000 </r>
       <r>    5.2512    1.0000 </r>
       <r>    6.1224    1.0310 </r>
       <r>   20.0697    0.0000 </r>
       <r>   21.9519    0.0000 </r>
       <r>   26.1479    0.0000 </r>
      </set>
      <set comment="kpoint 35">
       <r>    3.3585    1.0000 </r>
       <r>    4.1000    1.0000 </r>
       <r>    4.4845    1.0000 </r>
       <r>    5.0008    1.0000 </r>
       <r>    5.4208    1.0000 </r>
       <r>    7.3558    0.0000 </r>
       <r>   17.4767    0.0000 </r>
       <r>   19.5279    0.0000 </r>
       <r>   24.8516    0.0000 </r>
      </set>
      <set comment="kpoint 36">
       <r>    3.2436    1.0000 </r>
       <r>    4.1245    1.0000 </r>
       <r>    4.8894    1.0000 </r>
       <r>    4.9309    1.0000 </r>
       <r>    6.0577    1.0167 </r>
       <r>    9.3770    0.0000 </r>
       <r>   13.4286    0.0000 </r>
       <r>   19.6397    0.0000 </r>
       <r>   23.8939    0.0000 </r>
      </set>
      <set comment="kpoint 37">
       <r>    3.1374    1.0000 </r>
       <r>    4.0832    1.0000 </r>
       <r>    4.8451    1.0000 </r>
       <r>    4.9498    1.0000 </r>
       <r>    6.4028    0.5159 </r>
       <r>    9.2842    0.0000 </r>
       <r>   13.3034    0.0000 </r>
       <r>   20.7023    0.0000 </r>
       <r>   22.5155    0.0000 </r>
      </set>
      <set comment="kpoint 38">
       <r>    3.1237    1.0000 </r>
       <r>    3.9008    1.0000 </r>
       <r>    4.5756    1.0000 </r>
       <r>    5.1030    1.0000 </r>
       <r>    6.2423    0.9953 </r>
       <r>    6.8345   -0.0050 </r>
       <r>   17.3396    0.0000 </r>
       <r>   22.3114    0.0000 </r>
       <r>   22.4174    0.0000 </r>
      </set>
      <set comment="kpoint 39">
       <r>    2.7898    1.0000 </r>
       <r>    4.1030    1.0000 </r>
       <r>    4.5850    1.0000 </r>
       <r>    4.8696    1.0000 </r>
       <r>    5.9323    1.0020 </r>
       <r>    6.0123    1.0088 </r>
       <r>   18.5529    0.0000 </r>
       <r>   23.5784    0.0000 </r>
       <r>   23.8820    0.0000 </r>
      </set>
      <set comment="kpoint 40">
       <r>    3.4157    1.0000 </r>
       <r>    3.8769    1.0000 </r>
       <r>    4.3203    1.0000 </r>
       <r>    5.3251    1.0000 </r>
       <r>    5.7527    1.0000 </r>
       <r>    7.4301    0.0000 </r>
       <r>   17.6123    0.0000 </r>
       <r>   19.6519    0.0000 </r>
       <r>   22.7229    0.0000 </r>
      </set>
      <set comment="kpoint 41">
       <r>    3.7226    1.0000 </r>
       <r>    3.8901    1.0000 </r>
       <r>    4.1625    1.0000 </r>
       <r>    5.4249    1.0000 </r>
       <r>    6.0156    1.0092 </r>
       <r>    9.6133    0.0000 </r>
       <r>   15.3791    0.0000 </r>
       <r>   17.5291    0.0000 </r>
       <r>   20.8319    0.0000 </r>
      </set>
      <set comment="kpoint 42">
       <r>    3.5198    1.0000 </r>
       <r>    3.8052    1.0000 </r>
       <r>    4.4856    1.0000 </r>
       <r>    5.3511    1.0000 </r>
       <r>    6.3043    0.8763 </r>
       <r>   11.4537    0.0000 </r>
       <r>   12.8592    0.0000 </r>
       <r>   18.4150    0.0000 </r>
       <r>   19.3982    0.0000 </r>
      </set>
      <set comment="kpoint 43">
       <r>    3.4240    1.0000 </r>
       <r>    3.6683    1.0000 </r>
       <r>    4.4743    1.0000 </r>
       <r>    5.6372    1.0000 </r>
       <r>    6.0797    1.0215 </r>
       <r>    8.6286    0.0000 </r>
       <r>   16.5926    0.0000 </r>
       <r>   18.6356    0.0000 </r>
       <r>   20.2734    0.0000 </r>
      </set>
      <set comment="kpoint 44">
       <r>    3.1571    1.0000 </r>
       <r>    3.6202    1.0000 </r>
       <r>    4.8851    1.0000 </r>
       <r>    5.3953    1.0000 </r>
       <r>    6.4003    0.5263 </r>
       <r>    8.1413    0.0000 </r>
       <r>   16.2600    0.0000 </r>
       <r>   20.0598    0.0000 </r>
       <r>   21.0234    0.0000 </r>
      </set>
      <set comment="kpoint 45">
       <r>    3.2830    1.0000 </r>
       <r>    3.4714    1.0000 </r>
       <r>    4.8019    1.0000 </r>
       <r>    5.8154    1.0001 </r>
       <r>    6.3425    0.7561 </r>
       <r>   10.1819    0.0000 </r>
       <r>   15.7815    0.0000 </r>
       <r>   17.5158    0.0000 </r>
       <r>   18.2490    0.0000 </r>
      </set>
      <set comment="kpoint 46">
       <r>    3.4393    1.0000 </r>
       <r>    3.8053    1.0000 </r>
       <r>    4.3742    1.0000 </r>
       <r>    5.5598    1.0000 </r>
       <r>    6.5187    0.0983 </r>
       <r>   12.9996    0.0000 </r>
       <r>   14.1993    0.0000 </r>
       <r>   15.7798    0.0000 </r>
       <r>   17.0524    0.0000 </r>
      </set>
      <set comment="kpoint 47">
       <r>    3.5871    1.0000 </r>
       <r>    3.8120    1.0000 </r>
       <r>    4.2559    1.0000 </r>
       <r>    5.5493    1.0000 </r>
       <r>    6.3201    0.8306 </r>
       <r>   11.2413    0.0000 </r>
       <r>   14.6311    0.0000 </r>
       <r>   16.8427    0.0000 </r>
       <r>   18.4592    0.0000 </r>
      </set>
      <set comment="kpoint 48">
       <r>    2.9809    1.0000 </r>
       <r>    3.2722    1.0000 </r>
       <r>    5.4971    1.0000 </r>
       <r>    5.9365    1.0022 </r>
       <r>    6.4193    0.4462 </r>
       <r>   11.2552    0.0000 </r>
       <r>   14.8184    0.0000 </r>
       <r>   15.7962    0.0000 </r>
       <r>   19.6336    0.0000 </r>
      </set>
      <set comment="kpoint 49">
       <r>    3.1670    1.0000 </r>
       <r>    3.3828    1.0000 </r>
       <r>    5.0539    1.0000 </r>
       <r>    5.8278    1.0002 </r>
       <r>    6.5200    0.0952 </r>
       <r>   11.7488    0.0000 </r>
       <r>   15.1131    0.0000 </r>
       <r>   15.9189    0.0000 </r>
       <r>   17.6779    0.0000 </r>
      </set>
      <set comment="kpoint 50">
       <r>    3.0628    1.0000 </r>
       <r>    3.3889    1.0000 </r>
       <r>    5.2602    1.0000 </r>
       <r>    5.7011    1.0000 </r>
       <r>    6.4542    0.3045 </r>
       <r>    9.7346    0.0000 </r>
       <r>   15.4029    0.0000 </r>
       <r>   17.6388    0.0000 </r>
       <r>   20.1090    0.0000 </r>
      </set>
      <set comment="kpoint 51">
       <r>    2.6275    1.0000 </r>
       <r>    4.5864    1.0000 </r>
       <r>    4.5864    1.0000 </r>
       <r>    5.0571    1.0000 </r>
       <r>    5.8876    1.0008 </r>
       <r>    5.8876    1.0008 </r>
       <r>   16.8106    0.0000 </r>
       <r>   23.4214    0.0000 </r>
       <r>   26.5140    0.0000 </r>
      </set>
      <set comment="kpoint 52">
       <r>    3.0010    1.0000 </r>
       <r>    4.3893    1.0000 </r>
       <r>    4.7243    1.0000 </r>
       <r>    4.9058    1.0000 </r>
       <r>    5.7683    1.0000 </r>
       <r>    7.2602    0.0000 </r>
       <r>   15.6659    0.0000 </r>
       <r>   21.5130    0.0000 </r>
       <r>   24.3634    0.0000 </r>
      </set>
      <set comment="kpoint 53">
       <r>    3.5888    1.0000 </r>
       <r>    4.0977    1.0000 </r>
       <r>    4.4085    1.0000 </r>
       <r>    5.1569    1.0000 </r>
       <r>    5.7958    1.0001 </r>
       <r>    9.3796    0.0000 </r>
       <r>   15.2334    0.0000 </r>
       <r>   17.3981    0.0000 </r>
       <r>   23.9604    0.0000 </r>
      </set>
      <set comment="kpoint 54">
       <r>    3.3240    1.0000 </r>
       <r>    3.8455    1.0000 </r>
       <r>    4.7047    1.0000 </r>
       <r>    5.4950    1.0000 </r>
       <r>    6.1557    1.0353 </r>
       <r>   11.9985    0.0000 </r>
       <r>   13.2043    0.0000 </r>
       <r>   16.1081    0.0000 </r>
       <r>   21.5205    0.0000 </r>
      </set>
      <set comment="kpoint 55">
       <r>    2.9396    1.0000 </r>
       <r>    4.3074    1.0000 </r>
       <r>    4.7256    1.0000 </r>
       <r>    5.0268    1.0000 </r>
       <r>    6.3548    0.7110 </r>
       <r>    7.6987    0.0000 </r>
       <r>   14.2715    0.0000 </r>
       <r>   22.5288    0.0000 </r>
       <r>   23.5284    0.0000 </r>
      </set>
      <set comment="kpoint 56">
       <r>    3.3629    1.0000 </r>
       <r>    3.9801    1.0000 </r>
       <r>    4.6236    1.0000 </r>
       <r>    5.1257    1.0000 </r>
       <r>    6.2237    1.0138 </r>
       <r>    9.7342    0.0000 </r>
       <r>   13.5507    0.0000 </r>
       <r>   19.8060    0.0000 </r>
       <r>   20.9551    0.0000 </r>
      </set>
      <set comment="kpoint 57">
       <r>    3.5083    1.0000 </r>
       <r>    3.8393    1.0000 </r>
       <r>    4.3888    1.0000 </r>
       <r>    5.4951    1.0000 </r>
       <r>    6.3196    0.8320 </r>
       <r>   12.3442    0.0000 </r>
       <r>   13.4643    0.0000 </r>
       <r>   16.1942    0.0000 </r>
       <r>   19.1100    0.0000 </r>
      </set>
      <set comment="kpoint 58">
       <r>    3.2809    1.0000 </r>
       <r>    3.9072    1.0000 </r>
       <r>    4.7440    1.0000 </r>
       <r>    5.2355    1.0000 </r>
       <r>    6.3140    0.8489 </r>
       <r>   11.0645    0.0000 </r>
       <r>   12.6339    0.0000 </r>
       <r>   18.3215    0.0000 </r>
       <r>   21.8485    0.0000 </r>
      </set>
      <set comment="kpoint 59">
       <r>    2.6607    1.0000 </r>
       <r>    4.4427    1.0000 </r>
       <r>    4.4427    1.0000 </r>
       <r>    6.3026    0.8807 </r>
       <r>    6.3026    0.8807 </r>
       <r>    7.2567    0.0000 </r>
       <r>   12.9451    0.0000 </r>
       <r>   22.6545    0.0000 </r>
       <r>   25.3662    0.0000 </r>
      </set>
      <set comment="kpoint 60">
       <r>    2.9230    1.0000 </r>
       <r>    4.2489    1.0000 </r>
       <r>    4.6396    1.0000 </r>
       <r>    5.4898    1.0000 </r>
       <r>    6.2806    0.9330 </r>
       <r>    9.0958    0.0000 </r>
       <r>   12.3008    0.0000 </r>
       <r>   21.6946    0.0000 </r>
       <r>   23.7076    0.0000 </r>
      </set>
     </set>
    </set>
   </array>
  </eigenvalues>
  <separator name="orbital magnetization" >
   <v name="MAGDIPOLOUT">      0.00000000      0.00000000      0.00000000</v>
  </separator>
  <dos>
   <i name="efermi">      6.40654764 </i>
   <total>
    <array>
     <dimension dim="1">gridpoints</dimension>
     <dimension dim="2">spin</dimension>
     <field>energy</field>
     <field>total</field>
     <field>integrated</field>
     <set>
      <set comment="spin 1">
       <r>    -1.0139     0.0000     0.0000 </r>
       <r>    -0.9135     0.0000     0.0000 </r>
       <r>    -0.8130     0.0000     0.0000 </r>
       <r>    -0.7125     0.0000     0.0000 </r>
       <r>    -0.6121     0.0000     0.0000 </r>
       <r>    -0.5116     0.0000     0.0000 </r>
       <r>    -0.4111     0.0000     0.0000 </r>
       <r>    -0.3106     0.0000     0.0000 </r>
       <r>    -0.2102     0.0000     0.0000 </r>
       <r>    -0.1097     0.0000     0.0000 </r>
       <r>    -0.0092     0.0000     0.0000 </r>
       <r>     0.0912     0.0000     0.0000 </r>
       <r>     0.1917     0.0000     0.0000 </r>
       <r>     0.2922     0.0000     0.0000 </r>
       <r>     0.3926     0.0000     0.0000 </r>
       <r>     0.4931    -0.0001     0.0000 </r>
       <r>     0.5936    -0.0006    -0.0001 </r>
       <r>     0.6941    -0.0016    -0.0002 </r>
       <r>     0.7945     0.0004    -0.0002 </r>
       <r>     0.8950     0.0119     0.0010 </r>
       <r>     0.9955     0.0251     0.0035 </r>
       <r>     1.0959     0.0290     0.0065 </r>
       <r>     1.1964     0.0480     0.0113 </r>
       <r>     1.2969     0.0836     0.0197 </r>
       <r>     1.3974     0.0870     0.0284 </r>
       <r>     1.4978     0.0764     0.0361 </r>
       <r>     1.5983     0.0861     0.0447 </r>
       <r>     1.6988     0.0885     0.0536 </r>
       <r>     1.7992     0.0984     0.0635 </r>
       <r>     1.8997     0.1216     0.0757 </r>
       <r>     2.0002     0.1443     0.0902 </r>
       <r>     2.1007     0.1928     0.1096 </r>
       <r>     2.2011     0.2091     0.1306 </r>
       <r>     2.3016     0.1429     0.1450 </r>
       <r>     2.4021     0.0888     0.1539 </r>
       <r>     2.5025     0.1669     0.1707 </r>
       <r>     2.6030     0.3802     0.2089 </r>
       <r>     2.7035     0.6991     0.2791 </r>
       <r>     2.8039     1.1073     0.3903 </r>
       <r>     2.9044     1.5203     0.5431 </r>
       <r>     3.0049     1.9829     0.7423 </r>
       <r>     3.1054     2.5800     1.0015 </r>
       <r>     3.2058     2.9901     1.3019 </r>
       <r>     3.3063     2.9152     1.5948 </r>
       <r>     3.4068     2.6730     1.8634 </r>
       <r>     3.5072     2.5043     2.1150 </r>
       <r>     3.6077     2.2449     2.3406 </r>
       <r>     3.7082     1.9420     2.5357 </r>
       <r>     3.8087     1.9756     2.7341 </r>
       <r>     3.9091     2.2581     2.9610 </r>
       <r>     4.0096     2.3366     3.1958 </r>
       <r>     4.1101     2.2661     3.4235 </r>
       <r>     4.2105     2.3064     3.6552 </r>
       <r>     4.3110     2.5238     3.9088 </r>
       <r>     4.4115     2.8670     4.1968 </r>
       <r>     4.5120     3.2576     4.5241 </r>
       <r>     4.6124     3.6492     4.8907 </r>
       <r>     4.7129     3.8601     5.2786 </r>
       <r>     4.8134     3.5589     5.6361 </r>
       <r>     4.9138     2.9153     5.9290 </r>
       <r>     5.0143     2.5450     6.1847 </r>
       <r>     5.1148     2.4392     6.4298 </r>
       <r>     5.2153     2.2478     6.6556 </r>
       <r>     5.3157     2.2885     6.8856 </r>
       <r>     5.4162     2.7948     7.1664 </r>
       <r>     5.5167     3.1261     7.4805 </r>
       <r>     5.6171     2.8573     7.7675 </r>
       <r>     5.7176     2.5756     8.0263 </r>
       <r>     5.8181     2.5337     8.2809 </r>
       <r>     5.9185     2.3810     8.5201 </r>
       <r>     6.0190     2.3920     8.7604 </r>
       <r>     6.1195     2.7208     9.0338 </r>
       <r>     6.2200     3.1278     9.3480 </r>
       <r>     6.3204     3.5336     9.7031 </r>
       <r>     6.4209     3.3972    10.0444 </r>
       <r>     6.5214     2.4576    10.2913 </r>
       <r>     6.6218     1.3719    10.4291 </r>
       <r>     6.7223     0.6069    10.4901 </r>
       <r>     6.8228     0.2081    10.5110 </r>
       <r>     6.9233     0.1095    10.5220 </r>
       <r>     7.0237     0.1397    10.5361 </r>
       <r>     7.1242     0.1612    10.5522 </r>
       <r>     7.2247     0.1923    10.5716 </r>
       <r>     7.3251     0.3142    10.6031 </r>
       <r>     7.4256     0.4564    10.6490 </r>
       <r>     7.5261     0.4357    10.6928 </r>
       <r>     7.6266     0.3191    10.7248 </r>
       <r>     7.7270     0.2824    10.7532 </r>
       <r>     7.8275     0.2131    10.7746 </r>
       <r>     7.9280     0.0588    10.7805 </r>
       <r>     8.0284    -0.0064    10.7799 </r>
       <r>     8.1289     0.1402    10.7939 </r>
       <r>     8.2294     0.4744    10.8416 </r>
       <r>     8.3299     0.7082    10.9128 </r>
       <r>     8.4303     0.5677    10.9698 </r>
       <r>     8.5308     0.2913    10.9991 </r>
       <r>     8.6313     0.1885    11.0180 </r>
       <r>     8.7317     0.1905    11.0371 </r>
       <r>     8.8322     0.1953    11.0568 </r>
       <r>     8.9327     0.1810    11.0749 </r>
       <r>     9.0331     0.1626    11.0913 </r>
       <r>     9.1336     0.2301    11.1144 </r>
       <r>     9.2341     0.3405    11.1486 </r>
       <r>     9.3346     0.3572    11.1845 </r>
       <r>     9.4350     0.2657    11.2112 </r>
       <r>     9.5355     0.2284    11.2341 </r>
       <r>     9.6360     0.4208    11.2764 </r>
       <r>     9.7364     0.6480    11.3415 </r>
       <r>     9.8369     0.5396    11.3957 </r>
       <r>     9.9374     0.2025    11.4161 </r>
       <r>    10.0379     0.0343    11.4195 </r>
       <r>    10.1383     0.1031    11.4299 </r>
       <r>    10.2388     0.1653    11.4465 </r>
       <r>    10.3393     0.0914    11.4557 </r>
       <r>    10.4397     0.0755    11.4633 </r>
       <r>    10.5402     0.3132    11.4947 </r>
       <r>    10.6407     0.6137    11.5564 </r>
       <r>    10.7412     0.6047    11.6171 </r>
       <r>    10.8416     0.2987    11.6471 </r>
       <r>    10.9421     0.0566    11.6528 </r>
       <r>    11.0426     0.0484    11.6577 </r>
       <r>    11.1430     0.1734    11.6751 </r>
       <r>    11.2435     0.2990    11.7052 </r>
       <r>    11.3440     0.3262    11.7379 </r>
       <r>    11.4444     0.2642    11.7645 </r>
       <r>    11.5449     0.1790    11.7825 </r>
       <r>    11.6454     0.1335    11.7959 </r>
       <r>    11.7459     0.1653    11.8125 </r>
       <r>    11.8463     0.1728    11.8298 </r>
       <r>    11.9468     0.1130    11.8412 </r>
       <r>    12.0473     0.0701    11.8482 </r>
       <r>    12.1477     0.1507    11.8634 </r>
       <r>    12.2482     0.4421    11.9078 </r>
       <r>    12.3487     0.6902    11.9771 </r>
       <r>    12.4492     0.5648    12.0339 </r>
       <r>    12.5496     0.3196    12.0660 </r>
       <r>    12.6501     0.2540    12.0915 </r>
       <r>    12.7506     0.2417    12.1158 </r>
       <r>    12.8510     0.2606    12.1420 </r>
       <r>    12.9515     0.3762    12.1798 </r>
       <r>    13.0520     0.4540    12.2254 </r>
       <r>    13.1525     0.3747    12.2631 </r>
       <r>    13.2529     0.2471    12.2879 </r>
       <r>    13.3534     0.2632    12.3143 </r>
       <r>    13.4539     0.4579    12.3603 </r>
       <r>    13.5543     0.6004    12.4206 </r>
       <r>    13.6548     0.4410    12.4650 </r>
       <r>    13.7553     0.1354    12.4786 </r>
       <r>    13.8558     0.0077    12.4793 </r>
       <r>    13.9562     0.0986    12.4892 </r>
       <r>    14.0567     0.2684    12.5162 </r>
       <r>    14.1572     0.4431    12.5607 </r>
       <r>    14.2576     0.5283    12.6138 </r>
       <r>    14.3581     0.4066    12.6547 </r>
       <r>    14.4586     0.2549    12.6803 </r>
       <r>    14.5590     0.2731    12.7077 </r>
       <r>    14.6595     0.3545    12.7433 </r>
       <r>    14.7600     0.3786    12.7814 </r>
       <r>    14.8605     0.3021    12.8117 </r>
       <r>    14.9609     0.1602    12.8278 </r>
       <r>    15.0614     0.1215    12.8400 </r>
       <r>    15.1619     0.2403    12.8642 </r>
       <r>    15.2623     0.4541    12.9098 </r>
       <r>    15.3628     0.6462    12.9747 </r>
       <r>    15.4633     0.5639    13.0314 </r>
       <r>    15.5638     0.2766    13.0592 </r>
       <r>    15.6642     0.2850    13.0878 </r>
       <r>    15.7647     0.7135    13.1595 </r>
       <r>    15.8652     0.9735    13.2573 </r>
       <r>    15.9656     0.6878    13.3264 </r>
       <r>    16.0661     0.3158    13.3581 </r>
       <r>    16.1666     0.2808    13.3863 </r>
       <r>    16.2671     0.3896    13.4255 </r>
       <r>    16.3675     0.3536    13.4610 </r>
       <r>    16.4680     0.2284    13.4839 </r>
       <r>    16.5685     0.2396    13.5080 </r>
       <r>    16.6689     0.4006    13.5483 </r>
       <r>    16.7694     0.5851    13.6070 </r>
       <r>    16.8699     0.6990    13.6773 </r>
       <r>    16.9704     0.6566    13.7432 </r>
       <r>    17.0708     0.5086    13.7943 </r>
       <r>    17.1713     0.3226    13.8268 </r>
       <r>    17.2718     0.1833    13.8452 </r>
       <r>    17.3722     0.2467    13.8700 </r>
       <r>    17.4727     0.5466    13.9249 </r>
       <r>    17.5732     0.8827    14.0136 </r>
       <r>    17.6736     0.9140    14.1054 </r>
       <r>    17.7741     0.6226    14.1680 </r>
       <r>    17.8746     0.4346    14.2116 </r>
       <r>    17.9751     0.4183    14.2536 </r>
       <r>    18.0755     0.2700    14.2808 </r>
       <r>    18.1760     0.1494    14.2958 </r>
       <r>    18.2765     0.4001    14.3360 </r>
       <r>    18.3769     0.8962    14.4260 </r>
       <r>    18.4774     1.1274    14.5393 </r>
       <r>    18.5779     0.8743    14.6271 </r>
       <r>    18.6784     0.5116    14.6785 </r>
       <r>    18.7788     0.3790    14.7166 </r>
       <r>    18.8793     0.4510    14.7619 </r>
       <r>    18.9798     0.5632    14.8185 </r>
       <r>    19.0802     0.5980    14.8786 </r>
       <r>    19.1807     0.4901    14.9278 </r>
       <r>    19.2812     0.3165    14.9596 </r>
       <r>    19.3817     0.2411    14.9839 </r>
       <r>    19.4821     0.2795    15.0119 </r>
       <r>    19.5826     0.4724    15.0594 </r>
       <r>    19.6831     0.7966    15.1394 </r>
       <r>    19.7835     0.9249    15.2324 </r>
       <r>    19.8840     0.7310    15.3058 </r>
       <r>    19.9845     0.5616    15.3622 </r>
       <r>    20.0849     0.6294    15.4255 </r>
       <r>    20.1854     0.7320    15.4990 </r>
       <r>    20.2859     0.6881    15.5681 </r>
       <r>    20.3864     0.5133    15.6197 </r>
       <r>    20.4868     0.3432    15.6542 </r>
       <r>    20.5873     0.3301    15.6874 </r>
       <r>    20.6878     0.4826    15.7358 </r>
       <r>    20.7882     0.7155    15.8077 </r>
       <r>    20.8887     0.8328    15.8914 </r>
       <r>    20.9892     0.6757    15.9593 </r>
       <r>    21.0897     0.3827    15.9977 </r>
       <r>    21.1901     0.2094    16.0188 </r>
       <r>    21.2906     0.1797    16.0368 </r>
       <r>    21.3911     0.2587    16.0628 </r>
       <r>    21.4915     0.5301    16.1161 </r>
       <r>    21.5920     0.8051    16.1970 </r>
       <r>    21.6925     0.8043    16.2778 </r>
       <r>    21.7930     0.5876    16.3368 </r>
       <r>    21.8934     0.3766    16.3746 </r>
       <r>    21.9939     0.3155    16.4063 </r>
       <r>    22.0944     0.4039    16.4469 </r>
       <r>    22.1948     0.5152    16.4987 </r>
       <r>    22.2953     0.5693    16.5559 </r>
       <r>    22.3958     0.6164    16.6178 </r>
       <r>    22.4963     0.7046    16.6886 </r>
       <r>    22.5967     0.7892    16.7679 </r>
       <r>    22.6972     0.7772    16.8460 </r>
       <r>    22.7977     0.5870    16.9050 </r>
       <r>    22.8981     0.3005    16.9351 </r>
       <r>    22.9986     0.2012    16.9554 </r>
       <r>    23.0991     0.3988    16.9954 </r>
       <r>    23.1995     0.6675    17.0625 </r>
       <r>    23.3000     0.7339    17.1362 </r>
       <r>    23.4005     0.6118    17.1977 </r>
       <r>    23.5010     0.4792    17.2458 </r>
       <r>    23.6014     0.3546    17.2815 </r>
       <r>    23.7019     0.2595    17.3075 </r>
       <r>    23.8024     0.3501    17.3427 </r>
       <r>    23.9028     0.5472    17.3977 </r>
       <r>    24.0033     0.5371    17.4517 </r>
       <r>    24.1038     0.3037    17.4822 </r>
       <r>    24.2043     0.0960    17.4918 </r>
       <r>    24.3047     0.0492    17.4968 </r>
       <r>    24.4052     0.1656    17.5134 </r>
       <r>    24.5057     0.3766    17.5512 </r>
       <r>    24.6061     0.5312    17.6046 </r>
       <r>    24.7066     0.5299    17.6579 </r>
       <r>    24.8071     0.4968    17.7078 </r>
       <r>    24.9076     0.4853    17.7565 </r>
       <r>    25.0080     0.3343    17.7901 </r>
       <r>    25.1085     0.1007    17.8002 </r>
       <r>    25.2090    -0.0123    17.7990 </r>
       <r>    25.3094    -0.0100    17.7980 </r>
       <r>    25.4099     0.0200    17.8000 </r>
       <r>    25.5104     0.0932    17.8093 </r>
       <r>    25.6109     0.2417    17.8336 </r>
       <r>    25.7113     0.3452    17.8683 </r>
       <r>    25.8118     0.2660    17.8950 </r>
       <r>    25.9123     0.1029    17.9054 </r>
       <r>    26.0127     0.0818    17.9136 </r>
       <r>    26.1132     0.2188    17.9356 </r>
       <r>    26.2137     0.2699    17.9627 </r>
       <r>    26.3141     0.1426    17.9770 </r>
       <r>    26.4146     0.0272    17.9797 </r>
       <r>    26.5151     0.0129    17.9810 </r>
       <r>    26.6156     0.0232    17.9834 </r>
       <r>    26.7160     0.0245    17.9858 </r>
       <r>    26.8165     0.0287    17.9887 </r>
       <r>    26.9170     0.0254    17.9913 </r>
       <r>    27.0174     0.0197    17.9932 </r>
       <r>    27.1179     0.0271    17.9960 </r>
       <r>    27.2184     0.0285    17.9988 </r>
       <r>    27.3189     0.0132    18.0002 </r>
       <r>    27.4193     0.0007    18.0002 </r>
       <r>    27.5198    -0.0016    18.0001 </r>
       <r>    27.6203    -0.0006    18.0000 </r>
       <r>    27.7207    -0.0001    18.0000 </r>
       <r>    27.8212     0.0000    18.0000 </r>
       <r>    27.9217     0.0000    18.0000 </r>
       <r>    28.0222     0.0000    18.0000 </r>
       <r>    28.1226     0.0000    18.0000 </r>
       <r>    28.2231     0.0000    18.0000 </r>
       <r>    28.3236     0.0000    18.0000 </r>
       <r>    28.4240     0.0000    18.0000 </r>
       <r>    28.5245     0.0000    18.0000 </r>
       <r>    28.6250     0.0000    18.0000 </r>
       <r>    28.7254     0.0000    18.0000 </r>
       <r>    28.8259     0.0000    18.0000 </r>
       <r>    28.9264     0.0000    18.0000 </r>
       <r>    29.0269     0.0000    18.0000 </r>
       <r>    29.1273     0.0000    18.0000 </r>
      </set>
     </set>
    </array>
   </total>
  </dos>
 </calculation>
 <structure name="finalpos" >
  <crystal>
   <varray name="basis" >
    <v>       2.97069701       0.00000000       0.00000000 </v>
    <v>       1.48534850       2.57269908       0.00000000 </v>
    <v>       1.48534850       0.85756636       2.42556395 </v>
   </varray>
   <i name="volume">     18.53788054 </i>
   <varray name="rec_basis" >
    <v>       0.33662134      -0.19434842      -0.13742509 </v>
    <v>       0.00000000       0.38869684      -0.13742509 </v>
    <v>       0.00000000       0.00000000       0.41227526 </v>
   </varray>
  </crystal>
  <varray name="positions" >
   <v>       0.00000000       0.00000000       0.00000000 </v>
  </varray>
 </structure>
</modeling>
