 vasp.5.3.5 31Mar14 (build Jan 09 2015 16:57:47) complex                        
  
 POSCAR found :  1 types and       1 ions
 LDA part: xc-table for Pade appr. of Perdew
 POSCAR found :  1 types and       1 ions
 POSCAR, INCAR and KPOINTS ok, starting setup
 WARNING: small aliasing (wrap around) errors must be expected
 FFT: planning ...
 WAVECAR not read
 entering main loop
       N       E                     dE             d eps       ncg     rms          rms(c)
DAV:   1     0.281632391650E+02    0.28163E+02   -0.39685E+03  1096   0.708E+02
DAV:   2    -0.486449891954E+01   -0.33028E+02   -0.31926E+02  1128   0.154E+02
DAV:   3    -0.517912068038E+01   -0.31462E+00   -0.31055E+00  1311   0.171E+01
DAV:   4    -0.518053391248E+01   -0.14132E-02   -0.14131E-02  1215   0.110E+00
DAV:   5    -0.518055522766E+01   -0.21315E-04   -0.21316E-04  1216   0.124E-01    0.412E+00
DAV:   6    -0.498874550764E+01    0.19181E+00   -0.12884E+00  1101   0.974E+00    0.205E+00
DAV:   7    -0.498602934696E+01    0.27162E-02   -0.70080E-03  1125   0.847E-01    0.118E+00
DAV:   8    -0.498496081175E+01    0.10685E-02   -0.65968E-04  1129   0.211E-01    0.299E-02
DAV:   9    -0.498497450549E+01   -0.13694E-04   -0.78905E-06   570   0.287E-02
   1 F= -.49849745E+01 E0= -.49823965E+01  d E =-.498497E+01
 curvature:   0.00 expect dE= 0.000E+00 dE for cont linesearch  0.000E+00
 trial: gam= 0.00000 g(F)=  0.622E-62 g(S)=  0.000E+00 ort = 0.000E+00 (trialstep = 0.100E+01)
 search vector abs. value=  0.100E-09
 reached required accuracy - stopping structural energy minimisation
 writing wavefunctions
