unknown system                          
           1
     2.970697    0.000000    0.000000
     1.485349    2.572699    0.000000
     1.485349    0.857566    2.425564
   Pd
   1
Direct configuration=     1
   0.00000000  0.00000000  0.00000000
