unknown system                          
   1.00000000000000     
     3.007749    0.000000    0.000000
     1.503875    2.604787    0.000000
     1.503875    0.868262    2.455817
   Ag
     1
Direct
  0.000000  0.000000  0.000000
 
   28   28   28
  149.97      144.53      129.78      109.49      87.475      66.285      47.253      31.320      19.354      11.676    
  7.5484      5.3537      4.0779      3.4544      3.2726      3.4544      4.0779      5.3537      7.5484      11.676    
  19.354      31.320      47.253      66.285      87.475      109.49      129.78      144.53      144.53      134.45    
  117.05      96.167      74.926      55.150      37.927      24.207      14.662      9.0941      6.2304      4.5688    
  3.6691      3.2927      3.2937      3.6701      4.5677      6.2295      9.0954      14.663      24.205      37.925    
  55.152      74.927      96.165      117.05      134.45      144.53      129.78      117.05      99.294      79.687    
  60.466      43.018      28.431      17.602      10.769      7.1180      5.1010      3.9273      3.3533      3.1851    
  3.3533      3.9274      5.1010      7.1180      10.769      17.602      28.431      43.018      60.466      79.687    
  99.294      117.05      129.78      134.45      109.49      96.166      79.686      62.345      45.791      31.303    
  19.955      12.305      7.9618      5.6187      4.2009      3.4411      3.1231      3.1227      3.4408      4.2014    
  5.6190      7.9611      12.305      19.956      31.304      45.791      62.344      79.687      96.166      109.49    
  117.05      117.05      87.476      74.927      60.466      45.791      32.321      21.263      13.389      8.6451    
  6.0534      4.4575      3.5396      3.0921      2.9610      3.0921      3.5396      4.4575      6.0534      8.6451    
  13.389      21.263      32.321      45.791      60.466      74.927      87.476      96.166      99.294      96.166    
  66.285      55.151      43.018      31.303      21.263      13.781      9.0322      6.3425      4.6568      3.6301    
  3.0811      2.8495      2.8492      3.0808      3.6304      4.6573      6.3425      9.0319      13.781      21.263    
  31.303      43.018      55.151      66.286      74.927      79.686      79.686      74.926      47.252      37.926    
  28.431      19.956      13.389      9.0318      6.4441      4.7669      3.6941      3.0791      2.7750      2.6847    
  2.7750      3.0791      3.6941      4.7669      6.4441      9.0318      13.389      19.956      28.431      37.926    
  47.252      55.151      60.466      62.344      60.466      55.151      31.321      24.206      17.601      12.305    
  8.6453      6.3422      4.7664      3.7176      3.0808      2.7311      2.5792      2.5797      2.7317      3.0803    
  3.7169      4.7667      6.3428      8.6451      12.305      17.602      24.206      31.320      37.926      43.019    
  45.791      45.791      43.018      37.926      19.355      14.662      10.769      7.9616      6.0535      4.6569    
  3.6938      3.0806      2.7173      2.5276      2.4689      2.5276      2.7173      3.0806      3.6938      4.6569    
  6.0535      7.9615      10.769      14.662      19.355      24.206      28.430      31.303      32.321      31.303    
  28.430      24.206      11.676      9.0948      7.1186      5.6188      4.4577      3.6303      3.0793      2.7312    
  2.5278      2.4334      2.4331      2.5275      2.7316      3.0797      3.6302      4.4572      5.6189      7.1187    
  9.0947      11.676      14.662      17.602      19.955      21.263      21.263      19.956      17.601      14.662    
  7.5476      6.2300      5.1010      4.2011      3.5397      3.0811      2.7750      2.5793      2.4691      2.4333    
  2.4691      2.5793      2.7750      3.0812      3.5397      4.2011      5.1011      6.2300      7.5476      9.0947    
  10.769      12.305      13.389      13.780      13.389      12.305      10.769      9.0947      5.3537      4.5683    
  3.9267      3.4408      3.0921      2.8494      2.6845      2.5795      2.5276      2.5276      2.5794      2.6843    
  2.8493      3.0921      3.4410      3.9269      4.5683      5.3536      6.2299      7.1186      7.9615      8.6453    
  9.0321      9.0320      8.6451      7.9614      7.1187      6.2301      4.0789      3.6697      3.3533      3.1228    
  2.9609      2.8493      2.7750      2.7315      2.7170      2.7315      2.7750      2.8493      2.9609      3.1228    
  3.3533      3.6697      4.0789      4.5684      5.1011      5.6187      6.0533      6.3425      6.4441      6.3425    
  6.0533      5.6187      5.1010      4.5683      3.4544      3.2933      3.1858      3.1229      3.0921      3.0809    
  3.0794      3.0805      3.0806      3.0796      3.0811      3.0921      3.1228      3.1856      3.2931      3.4543    
  3.6697      3.9270      4.2012      4.4574      4.6570      4.7665      4.7666      4.6572      4.4575      4.2011    
  3.9267      3.6695      3.2717      3.2931      3.3533      3.4410      3.5397      3.6303      3.6941      3.7171    
  3.6941      3.6303      3.5397      3.4410      3.3533      3.2931      3.2717      3.2931      3.3533      3.4410    
  3.5397      3.6303      3.6941      3.7171      3.6941      3.6303      3.5397      3.4410      3.3533      3.2931    
  3.4544      3.6695      3.9267      4.2011      4.4575      4.6572      4.7666      4.7665      4.6570      4.4574    
  4.2012      3.9270      3.6697      3.4543      3.2931      3.1856      3.1228      3.0921      3.0811      3.0796    
  3.0806      3.0805      3.0794      3.0809      3.0921      3.1229      3.1858      3.2933      4.0789      4.5683    
  5.1010      5.6187      6.0533      6.3425      6.4441      6.3425      6.0533      5.6187      5.1011      4.5684    
  4.0789      3.6697      3.3533      3.1228      2.9609      2.8493      2.7750      2.7315      2.7170      2.7315    
  2.7750      2.8493      2.9609      3.1228      3.3533      3.6697      5.3537      6.2301      7.1187      7.9614    
  8.6451      9.0320      9.0321      8.6453      7.9615      7.1186      6.2299      5.3536      4.5683      3.9269    
  3.4410      3.0921      2.8493      2.6843      2.5794      2.5276      2.5276      2.5795      2.6845      2.8494    
  3.0921      3.4408      3.9267      4.5683      7.5476      9.0947      10.769      12.305      13.389      13.780    
  13.389      12.305      10.769      9.0947      7.5476      6.2300      5.1011      4.2011      3.5397      3.0812    
  2.7750      2.5793      2.4691      2.4333      2.4691      2.5793      2.7750      3.0811      3.5397      4.2011    
  5.1010      6.2300      11.676      14.662      17.601      19.956      21.263      21.263      19.955      17.602    
  14.662      11.676      9.0947      7.1187      5.6189      4.4572      3.6302      3.0797      2.7316      2.5275    
  2.4331      2.4334      2.5278      2.7312      3.0793      3.6303      4.4577      5.6188      7.1186      9.0948    
  19.355      24.206      28.430      31.303      32.321      31.303      28.430      24.206      19.355      14.662    
  10.769      7.9615      6.0535      4.6569      3.6938      3.0806      2.7173      2.5276      2.4689      2.5276    
  2.7173      3.0806      3.6938      4.6569      6.0535      7.9616      10.769      14.662      31.321      37.926    
  43.018      45.791      45.791      43.019      37.926      31.320      24.206      17.602      12.305      8.6451    
  6.3428      4.7667      3.7169      3.0803      2.7317      2.5797      2.5792      2.7311      3.0808      3.7176    
  4.7664      6.3422      8.6453      12.305      17.601      24.206      47.252      55.151      60.466      62.344    
  60.466      55.151      47.252      37.926      28.431      19.956      13.389      9.0318      6.4441      4.7669    
  3.6941      3.0791      2.7750      2.6847      2.7750      3.0791      3.6941      4.7669      6.4441      9.0318    
  13.389      19.956      28.431      37.926      66.285      74.926      79.686      79.686      74.927      66.286    
  55.151      43.018      31.303      21.263      13.781      9.0319      6.3425      4.6573      3.6304      3.0808    
  2.8492      2.8495      3.0811      3.6301      4.6568      6.3425      9.0322      13.781      21.263      31.303    
  43.018      55.151      87.476      96.166      99.294      96.166      87.476      74.927      60.466      45.791    
  32.321      21.263      13.389      8.6451      6.0534      4.4575      3.5396      3.0921      2.9610      3.0921    
  3.5396      4.4575      6.0534      8.6451      13.389      21.263      32.321      45.791      60.466      74.927    
  109.49      117.05      117.05      109.49      96.166      79.687      62.344      45.791      31.304      19.956    
  12.305      7.9611      5.6190      4.2014      3.4408      3.1227      3.1231      3.4411      4.2009      5.6187    
  7.9618      12.305      19.955      31.303      45.791      62.345      79.686      96.166      129.78      134.45    
  129.78      117.05      99.294      79.687      60.466      43.018      28.431      17.602      10.769      7.1180    
  5.1010      3.9274      3.3533      3.1851      3.3533      3.9273      5.1010      7.1180      10.769      17.602    
  28.431      43.018      60.466      79.687      99.294      117.05      144.53      144.53      134.45      117.05    
  96.165      74.927      55.152      37.925      24.205      14.663      9.0954      6.2295      4.5677      3.6701    
  3.2937      3.2927      3.6691      4.5688      6.2304      9.0941      14.662      24.207      37.927      55.150    
  74.926      96.167      117.05      134.45      144.53      134.45      117.05      96.167      74.926      55.150    
  37.927      24.207      14.662      9.0941      6.2304      4.5688      3.6691      3.2927      3.2937      3.6701    
  4.5677      6.2295      9.0954      14.663      24.205      37.925      55.152      74.927      96.165      117.05    
  134.45      144.53      134.45      121.08      102.51      82.143      62.301      44.354      29.344      18.158    
  11.059      7.2581      5.1863      3.9804      3.3901      3.2171      3.3902      3.9805      5.1862      7.2581    
  11.059      18.158      29.344      44.353      62.300      82.143      102.51      121.08      134.45      139.37    
  117.05      102.51      84.715      66.201      48.667      33.336      21.255      13.024      8.3120      5.8173    
  4.3233      3.5209      3.1849      3.1844      3.5204      4.3240      5.8178      8.3112      13.024      21.256    
  33.336      48.665      66.200      84.716      102.51      117.05      125.36      125.36      96.167      82.143    
  66.200      50.185      35.515      23.386      14.623      9.2674      6.3858      4.6633      3.6681      3.1833    
  3.0416      3.1833      3.6681      4.6634      6.3857      9.2672      14.622      23.386      35.516      50.185    
  66.200      82.143      96.166      105.99      109.55      105.99      74.927      62.301      48.666      35.515    
  24.143      15.520      9.9444      6.8176      4.9528      3.8110      3.2010      2.9447      2.9447      3.2009    
  3.8110      4.9529      6.8176      9.9442      15.520      24.144      35.515      48.666      62.301      74.927    
  84.842      90.354      90.354      84.841      55.151      44.354      33.336      23.386      15.520      10.189    
  7.0548      5.1481      3.9246      3.2247      2.8808      2.7793      2.8808      3.2247      3.9247      5.1482    
  7.0548      10.189      15.520      23.386      33.336      44.354      55.151      64.338      70.564      72.774    
  70.564      64.338      37.926      29.344      21.255      14.623      9.9446      7.0546      5.2167      3.9881    
  3.2446      2.8410      2.6678      2.6682      2.8415      3.2442      3.9876      5.2171      7.0551      9.9443    
  14.623      21.256      29.345      37.926      45.838      51.931      55.254      55.254      51.931      45.838    
  24.206      18.157      13.024      9.2674      6.8179      5.1480      3.9877      3.2520      2.8225      2.6026    
  2.5354      2.6026      2.8224      3.2519      3.9875      5.1479      6.8179      9.2675      13.024      18.157    
  24.206      30.348      35.637      39.214      40.478      39.214      35.637      30.349      14.662      11.059    
  8.3115      6.3854      4.9529      3.9248      3.2443      2.8220      2.5810      2.4716      2.4712      2.5806    
  2.8223      3.2446      3.9245      4.9526      6.3856      8.3118      11.058      14.662      18.757      22.715    
  25.844      27.570      27.570      25.844      22.715      18.757      9.0947      7.2590      5.8177      4.6632    
  3.8110      3.2250      2.8412      2.6024      2.4714      2.4295      2.4714      2.6024      2.8413      3.2251    
  3.8111      4.6631      5.8175      7.2589      9.0948      11.362      13.818      16.046      17.603      18.161    
  17.603      16.046      13.818      11.361      6.2298      5.1863      4.3237      3.6683      3.2010      2.8809    
  2.6680      2.5356      2.4713      2.4714      2.5357      2.6679      2.8808      3.2011      3.6684      4.3237    
  5.1863      6.2299      7.3971      8.6824      9.9678      11.026      11.626      11.626      11.026      9.9679    
  8.6824      7.3970      4.5683      3.9797      3.5205      3.1833      2.9448      2.7792      2.6680      2.6026    
  2.5808      2.6026      2.6680      2.7790      2.9446      3.1833      3.5207      3.9800      4.5684      5.2637    
  6.0094      6.7236      7.3347      7.7587      7.9114      7.7585      7.3346      6.7236      6.0095      5.2638    
  3.6697      3.3902      3.1846      3.0413      2.9447      2.8809      2.8413      2.8221      2.8222      2.8413    
  2.8808      2.9446      3.0413      3.1846      3.3901      3.6696      4.0229      4.4316      4.8578      5.2492    
  5.5498      5.7131      5.7131      5.5497      5.2492      4.8578      4.4315      4.0229      3.2932      3.2179    
  3.1848      3.1833      3.2009      3.2248      3.2444      3.2518      3.2444      3.2250      3.2010      3.1833    
  3.1845      3.2176      3.2931      3.4157      3.5812      3.7752      3.9738      4.1473      4.2665      4.3091    
  4.2667      4.1475      3.9737      3.7750      3.5811      3.4157      3.2931      3.3902      3.5207      3.6684    
  3.8111      3.9247      3.9878      3.9878      3.9247      3.8111      3.6684      3.5207      3.3902      3.2931    
  3.2381      3.2253      3.2473      3.2919      3.3446      3.3907      3.4174      3.4174      3.3906      3.3447    
  3.2920      3.2473      3.2253      3.2381      3.6695      3.9798      4.3236      4.6634      4.9530      5.1481    
  5.2168      5.1479      4.9528      4.6632      4.3237      3.9800      3.6697      3.4157      3.2252      3.0929    
  3.0062      2.9520      2.9198      2.9028      2.8974      2.9026      2.9196      2.9520      3.0064      3.0930    
  3.2254      3.4157      4.5683      5.1863      5.8175      6.3854      6.8176      7.0549      7.0549      6.8176    
  6.3855      5.8175      5.1863      4.5683      4.0229      3.5813      3.2473      3.0062      2.8365      2.7195    
  2.6442      2.6067      2.6067      2.6442      2.7194      2.8364      3.0062      3.2473      3.5813      4.0229    
  6.2301      7.2588      8.3116      9.2673      9.9442      10.190      9.9445      9.2675      8.3117      7.2587    
  6.2299      5.2638      4.4316      3.7752      3.2919      2.9520      2.7194      2.5663      2.4776      2.4483    
  2.4776      2.5664      2.7196      2.9520      3.2917      3.7750      4.4315      5.2638      9.0949      11.059    
  13.024      14.623      15.520      15.520      14.623      13.024      11.059      9.0947      7.3970      6.0095    
  4.8579      3.9737      3.3446      2.9199      2.6442      2.4775      2.3983      2.3985      2.4777      2.6441    
  2.9197      3.3447      3.9739      4.8577      6.0093      7.3971      14.662      18.157      21.256      23.386    
  24.144      23.385      21.255      18.157      14.662      11.362      8.6823      6.7236      5.2494      4.1474    
  3.3904      2.9028      2.6069      2.4482      2.3982      2.4482      2.6068      2.9027      3.3904      4.1475    
  5.2496      6.7237      8.6822      11.362      24.206      29.345      33.336      35.515      35.516      33.336    
  29.344      24.206      18.757      13.818      9.9676      7.3345      5.5500      4.2667      3.4172      2.8972    
  2.6069      2.4778      2.4774      2.6064      2.8976      3.4177      4.2663      5.5495      7.3348      9.9681    
  13.818      18.757      37.926      44.354      48.666      50.185      48.666      44.355      37.926      30.348    
  22.715      16.046      11.026      7.7583      5.7131      4.3094      3.4174      2.9023      2.6441      2.5667    
  2.6442      2.9024      3.4174      4.3095      5.7130      7.7582      11.026      16.046      22.715      30.348    
  55.151      62.300      66.200      66.200      62.301      55.151      45.838      35.637      25.844      17.603    
  11.626      7.9112      5.7129      4.2669      3.3908      2.9195      2.7193      2.7197      2.9199      3.3904    
  4.2664      5.7132      7.9117      11.625      17.602      25.844      35.637      45.838      74.926      82.142    
  84.716      82.143      74.927      64.338      51.931      39.214      27.570      18.162      11.626      7.7586    
  5.5497      4.1476      3.3447      2.9520      2.8364      2.9520      3.3447      4.1475      5.5496      7.7585    
  11.626      18.162      27.570      39.214      51.931      64.338      96.166      102.51      102.51      96.166    
  84.842      70.564      55.253      40.478      27.570      17.603      11.026      7.3345      5.2493      3.9739    
  3.2919      3.0062      3.0063      3.2919      3.9737      5.2493      7.3347      11.026      17.603      27.570    
  40.478      55.254      70.563      84.841      117.05      121.08      117.05      105.99      90.354      72.775    
  55.254      39.213      25.844      16.046      9.9679      6.7232      4.8578      3.7754      3.2473      3.0926    
  3.2473      3.7754      4.8578      6.7233      9.9679      16.046      25.844      39.213      55.254      72.775    
  90.354      105.99      134.45      134.45      125.36      109.55      90.354      70.564      51.932      35.637    
  22.715      13.819      8.6829      6.0091      4.4311      3.5815      3.2257      3.2250      3.5808      4.4320    
  6.0098      8.6820      13.818      22.716      35.638      51.930      70.563      90.355      109.55      125.36    
  144.53      139.37      125.36      105.99      84.841      64.338      45.839      30.349      18.756      11.362    
  7.3978      5.2638      4.0221      3.4157      3.2389      3.4157      4.0221      5.2638      7.3978      11.362    
  18.756      30.349      45.839      64.338      84.841      105.99      125.36      139.37      129.78      117.05    
  99.294      79.687      60.466      43.018      28.431      17.602      10.769      7.1180      5.1010      3.9273    
  3.3533      3.1851      3.3533      3.9274      5.1010      7.1180      10.769      17.602      28.431      43.018    
  60.466      79.687      99.294      117.05      129.78      134.45      117.05      102.51      84.715      66.201    
  48.667      33.336      21.255      13.024      8.3120      5.8173      4.3233      3.5209      3.1849      3.1844    
  3.5204      4.3240      5.8178      8.3112      13.024      21.256      33.336      48.665      66.200      84.716    
  102.51      117.05      125.36      125.36      99.294      84.715      68.226      51.729      36.641      24.139    
  15.065      9.4919      6.5019      4.7355      3.7130      3.2150      3.0695      3.2150      3.7131      4.7355    
  6.5019      9.4919      15.065      24.139      36.641      51.729      68.226      84.715      99.294      109.55    
  113.27      109.55      79.686      66.200      51.729      37.805      25.726      16.491      10.459      7.0768    
  5.1124      3.9085      3.2651      2.9952      2.9953      3.2651      3.9085      5.1124      7.0769      10.459    
  16.490      25.726      37.805      51.730      66.200      79.686      90.354      96.318      96.318      90.354    
  60.466      48.666      36.640      25.726      17.001      11.006      7.4712      5.4014      4.0781      3.3208    
  2.9500      2.8408      2.9500      3.3208      4.0781      5.4014      7.4712      11.006      17.001      25.726    
  36.640      48.666      60.466      70.564      77.449      79.904      77.449      70.564      43.019      33.336    
  24.139      16.491      11.006      7.6121      5.5577      4.1942      3.3688      2.9235      2.7336      2.7340    
  2.9239      3.3684      4.1938      5.5581      7.6127      11.006      16.490      24.139      33.336      43.018    
  51.931      58.811      62.574      62.574      58.810      51.931      28.431      21.256      15.065      10.459    
  7.4715      5.5579      4.2349      3.3960      2.9105      2.6649      2.5905      2.6649      2.9104      3.3960    
  4.2349      5.5579      7.4715      10.459      15.065      21.256      28.431      35.637      41.809      45.977    
  47.450      45.977      41.809      35.637      17.602      13.024      9.4917      7.0767      5.4015      4.1943    
  3.3958      2.9058      2.6308      2.5079      2.5074      2.6303      2.9062      3.3962      4.1938      5.4009    
  7.0771      9.4923      13.024      17.601      22.715      27.593      31.417      33.518      33.518      31.418    
  27.593      22.715      10.769      8.3118      6.5016      5.1121      4.0781      3.3688      2.9102      2.6304    
  2.4801      2.4327      2.4801      2.6304      2.9102      3.3688      4.0781      5.1121      6.5016      8.3118    
  10.769      13.818      17.081      20.004      22.027      22.750      22.027      20.004      17.081      13.818    
  7.1186      5.8178      4.7356      3.9084      3.3208      2.9237      2.6650      2.5076      2.4325      2.4326    
  2.5077      2.6649      2.9237      3.3211      3.9086      4.7354      5.8174      7.1186      8.6825      10.490    
  12.311      13.802      14.644      14.643      13.802      12.311      10.490      8.6823      5.1010      4.3237    
  3.7134      3.2652      2.9500      2.7338      2.5909      2.5076      2.4801      2.5076      2.5909      2.7338    
  2.9500      3.2652      3.7134      4.3237      5.1011      6.0094      6.9746      7.9483      8.8296      9.4547    
  9.6816      9.4547      8.8296      7.9483      6.9746      6.0094      3.9267      3.5205      3.2150      2.9953    
  2.8407      2.7339      2.6649      2.6305      2.6306      2.6650      2.7338      2.8405      2.9952      3.2151    
  3.5207      3.9269      4.4316      5.0070      5.5985      6.1340      6.5405      6.7621      6.7620      6.5405    
  6.1341      5.5987      5.0071      4.4315      3.3533      3.1846      3.0692      2.9951      2.9500      2.9238    
  2.9102      2.9059      2.9102      2.9238      2.9500      2.9951      3.0691      3.1846      3.3533      3.5813    
  3.8629      4.1776      4.4909      4.7595      4.9414      5.0058      4.9414      4.7595      4.4909      4.1776    
  3.8628      3.5812      3.1857      3.1847      3.2150      3.2650      3.3209      3.3686      3.3960      3.3960    
  3.3686      3.3210      3.2652      3.2150      3.1845      3.1855      3.2253      3.3044      3.4159      3.5452    
  3.6723      3.7745      3.8317      3.8318      3.7746      3.6723      3.5451      3.4157      3.3044      3.2254    
  3.3534      3.5207      3.7134      3.9085      4.0781      4.1940      4.2352      4.1940      4.0781      3.9085    
  3.7134      3.5207      3.3533      3.2252      3.1411      3.0972      3.0844      3.0914      3.1070      3.1211    
  3.1267      3.1211      3.1070      3.0914      3.0844      3.0972      3.1411      3.2253      3.9268      4.3237    
  4.7355      5.1125      5.4013      5.5580      5.5579      5.4011      5.1123      4.7355      4.3237      3.9269    
  3.5813      3.3045      3.0971      2.9493      2.8469      2.7778      2.7344      2.7132      2.7132      2.7343    
  2.7777      2.8470      2.9495      3.0973      3.3044      3.5811      5.1010      5.8175      6.5016      7.0768    
  7.4712      7.6126      7.4712      7.0768      6.5016      5.8175      5.1011      4.4316      3.8629      3.4159    
  3.0844      2.8469      2.6801      2.5674      2.5007      2.4785      2.5007      2.5674      2.6801      2.8469    
  3.0844      3.4159      3.8628      4.4316      7.1187      8.3116      9.4918      10.459      11.006      11.006    
  10.459      9.4921      8.3116      7.1185      6.0094      5.0070      4.1776      3.5452      3.0914      2.7778    
  2.5674      2.4356      2.3714      2.3715      2.4358      2.5674      2.7777      3.0913      3.5451      4.1775    
  5.0071      6.0096      10.770      13.024      15.066      16.491      17.002      16.490      15.066      13.024    
  10.769      8.6824      6.9745      5.5986      4.4910      3.6723      3.1068      2.7344      2.5009      2.3714    
  2.3296      2.3714      2.5009      2.7344      3.1068      3.6723      4.4910      5.5985      6.9744      8.6824    
  17.602      21.256      24.139      25.726      25.726      24.139      21.255      17.601      13.818      10.490    
  7.9482      6.1338      4.7598      3.7747      3.1209      2.7131      2.4786      2.3716      2.3712      2.4782    
  2.7133      3.1213      3.7745      4.7595      6.1342      7.9485      10.490      13.818      28.431      33.336    
  36.640      37.805      36.640      33.336      28.431      22.715      17.081      12.311      8.8296      6.5402    
  4.9414      3.8320      3.1267      2.7129      2.5007      2.4361      2.5007      2.7129      3.1267      3.8320    
  4.9414      6.5402      8.8296      12.311      17.081      22.715      43.018      48.666      51.729      51.729    
  48.666      43.019      35.638      27.593      20.003      13.803      9.4549      6.7618      5.0055      3.8320    
  3.1213      2.7341      2.5671      2.5676      2.7346      3.1209      3.8315      5.0059      6.7622      9.4545    
  13.802      20.004      27.593      35.637      60.466      66.200      68.226      66.200      60.466      51.931    
  41.810      31.417      22.027      14.644      9.6818      6.7620      4.9412      3.7746      3.1072      2.7777    
  2.6799      2.7777      3.1072      3.7746      4.9412      6.7620      9.6818      14.644      22.027      31.417    
  41.810      51.931      79.686      84.715      84.715      79.686      70.564      58.811      45.977      33.518    
  22.751      14.643      9.4548      6.5405      4.7595      3.6723      3.0915      2.8470      2.8469      3.0912    
  3.6724      4.7597      6.5405      9.4546      14.644      22.751      33.518      45.976      58.811      70.564    
  99.294      102.51      99.294      90.354      77.449      62.574      47.450      33.518      22.027      13.802    
  8.8296      6.1339      4.4909      3.5453      3.0844      2.9494      3.0844      3.5453      4.4909      6.1339    
  8.8296      13.802      22.027      33.518      47.450      62.574      77.449      90.354      117.05      117.05    
  109.55      96.318      79.904      62.574      45.977      31.417      20.003      12.311      7.9486      5.5984    
  4.1773      3.4160      3.0974      3.0970      3.4156      4.1778      5.5988      7.9481      12.311      20.004    
  31.418      45.976      62.574      79.905      96.319      109.55      129.78      125.36      113.27      96.318    
  77.449      58.810      41.810      27.593      17.081      10.490      6.9751      5.0071      3.8623      3.3044    
  3.1417      3.3044      3.8623      5.0071      6.9751      10.490      17.081      27.593      41.810      58.810    
  77.449      96.318      113.27      125.36      134.45      125.36      109.55      90.355      70.563      51.930    
  35.638      22.716      13.818      8.6820      6.0098      4.4320      3.5808      3.2250      3.2257      3.5815    
  4.4311      6.0091      8.6829      13.819      22.715      35.637      51.932      70.564      90.354      109.55    
  125.36      134.45      109.49      96.166      79.686      62.345      45.791      31.303      19.955      12.305    
  7.9618      5.6187      4.2009      3.4411      3.1231      3.1227      3.4408      4.2014      5.6190      7.9611    
  12.305      19.956      31.304      45.791      62.344      79.687      96.166      109.49      117.05      117.05    
  96.167      82.143      66.200      50.185      35.515      23.386      14.623      9.2674      6.3858      4.6633    
  3.6681      3.1833      3.0416      3.1833      3.6681      4.6634      6.3857      9.2672      14.622      23.386    
  35.516      50.185      66.200      82.143      96.166      105.99      109.55      105.99      79.686      66.200    
  51.729      37.805      25.726      16.491      10.459      7.0768      5.1124      3.9085      3.2651      2.9952    
  2.9953      3.2651      3.9085      5.1124      7.0769      10.459      16.490      25.726      37.805      51.730    
  66.200      79.686      90.354      96.318      96.318      90.354      62.344      50.185      37.805      26.556    
  17.532      11.301      7.6201      5.4900      4.1319      3.3545      2.9741      2.8621      2.9741      3.3545    