unknown system                          
   1.00000000000000     
     3.007749    0.000000    0.000000
     1.503875    2.604787    0.000000
     1.503875    0.868262    2.455817
   Ag
     1
Direct
  0.000000  0.000000  0.000000
 
   28   28   28
 0.14996947395E+03 0.14452753791E+03 0.12978396515E+03 0.10948719540E+03 0.87475014351E+02
 0.66285350556E+02 0.47252833749E+02 0.31320322802E+02 0.19353548027E+02 0.11675948202E+02
 0.75484496177E+01 0.53537082200E+01 0.40779456483E+01 0.34543753519E+01 0.32726065752E+01
 0.34543753519E+01 0.40779456483E+01 0.53537082200E+01 0.75484496177E+01 0.11675948202E+02
 0.19353548027E+02 0.31320322802E+02 0.47252833749E+02 0.66285350556E+02 0.87475014351E+02
 0.10948719540E+03 0.12978396515E+03 0.14452753791E+03 0.14452695619E+03 0.13445165287E+03
 0.11705104050E+03 0.96166922419E+02 0.74926050662E+02 0.55150492507E+02 0.37926594753E+02
 0.24206650725E+02 0.14661552328E+02 0.90941204900E+01 0.62304455507E+01 0.45688216843E+01
 0.36690748408E+01 0.32926845021E+01 0.32937198959E+01 0.36700661207E+01 0.45677329545E+01
 0.62295152568E+01 0.90953719282E+01 0.14662625136E+02 0.24205442993E+02 0.37925470364E+02
 0.55151530265E+02 0.74926833105E+02 0.96165461042E+02 0.11705002816E+03 0.13445328691E+03
 0.14452837747E+03 0.12978307482E+03 0.11704982169E+03 0.99293987136E+02 0.79686809611E+02
 0.60466237115E+02 0.43017720072E+02 0.28430652571E+02 0.17602128820E+02 0.10769408576E+02
 0.71180444197E+01 0.51010491617E+01 0.39273484974E+01 0.33533250734E+01 0.31851292526E+01
 0.33533427643E+01 0.39273666730E+01 0.51010485422E+01 0.71180220900E+01 0.10769381214E+02
 0.17602118677E+02 0.28430664600E+02 0.43017731196E+02 0.60466206838E+02 0.79686707586E+02
 0.99293823826E+02 0.11704964832E+03 0.12978296263E+03 0.13445334229E+03 0.10948746422E+03
 0.96166071880E+02 0.79685903693E+02 0.62344759472E+02 0.45791367856E+02 0.31303091476E+02
 0.19955128352E+02 0.12305252377E+02 0.79618339544E+01 0.56186741586E+01 0.42008951697E+01
 0.34411156929E+01 0.31230924304E+01 0.31226698748E+01 0.34407560590E+01 0.42014034891E+01
 0.56189740163E+01 0.79611185471E+01 0.12304759237E+02 0.19955797622E+02 0.31303685205E+02
 0.45790895856E+02 0.62344413052E+02 0.79686546830E+02 0.96166295014E+02 0.10948630886E+03
 0.11705001658E+03 0.11705087870E+03 0.87476017517E+02 0.74926632377E+02 0.60466124279E+02
 0.45791099032E+02 0.32320980142E+02 0.21263238122E+02 0.13389060136E+02 0.86450830139E+01
 0.60533650229E+01 0.44575282844E+01 0.35395869227E+01 0.30921028175E+01 0.29610089474E+01
 0.30921172537E+01 0.35396038365E+01 0.44575338137E+01 0.60533551943E+01 0.86450679324E+01
 0.13389057627E+02 0.21263259499E+02 0.32321022588E+02 0.45791143561E+02 0.60466150683E+02
 0.74926633182E+02 0.87475999641E+02 0.96166026190E+02 0.99293710990E+02 0.96166042757E+02
 0.66285274126E+02 0.55150997792E+02 0.43018433596E+02 0.31303436730E+02 0.21263161692E+02
 0.13780576416E+02 0.90321683610E+01 0.63424547423E+01 0.46568450696E+01 0.36301487298E+01
 0.30811394435E+01 0.28494982147E+01 0.28492476303E+01 0.30808476824E+01 0.36303671023E+01
 0.46572513693E+01 0.63424629511E+01 0.90319153839E+01 0.13780533282E+02 0.21263258076E+02
 0.31303335432E+02 0.43018261479E+02 0.55151112095E+02 0.66285608444E+02 0.74926556751E+02
 0.79686201575E+02 0.79686146923E+02 0.74926327821E+02 0.47251943419E+02 0.37925767643E+02
 0.28430652571E+02 0.19955642571E+02 0.13389172972E+02 0.90318465359E+01 0.64441208067E+01
 0.47668671588E+01 0.36940924101E+01 0.30791375107E+01 0.27749974746E+01 0.26847119745E+01
 0.27749921972E+01 0.30791343401E+01 0.36940986542E+01 0.47668805321E+01 0.64441302664E+01
 0.90318378726E+01 0.13389146949E+02 0.19955612598E+02 0.28430646760E+02 0.37925805498E+02
 0.47252020216E+02 0.55151281060E+02 0.60466263519E+02 0.62344436481E+02 0.60466206838E+02
 0.55151193945E+02 0.31320527289E+02 0.24205864523E+02 0.17601287239E+02 0.12305188040E+02
 0.86452875010E+01 0.63421738248E+01 0.47664172770E+01 0.37175967055E+01 0.30808455066E+01
 0.27311479235E+01 0.25792220493E+01 0.25797321241E+01 0.27316743165E+01 0.30803147989E+01
 0.37169204971E+01 0.47667316593E+01 0.63427503990E+01 0.86450720226E+01 0.12304792665E+02
 0.17601582262E+02 0.24206191591E+02 0.31320111548E+02 0.37925846405E+02 0.43018542396E+02
 0.45791348048E+02 0.45790960192E+02 0.43018163802E+02 0.37926256566E+02 0.19354693524E+02
 0.14662134043E+02 0.10769153409E+02 0.79615651305E+01 0.60535073532E+01 0.46569215000E+01
 0.36938372437E+01 0.30806410196E+01 0.27172817123E+01 0.25276312565E+01 0.24688549696E+01
 0.25276141375E+01 0.27172605568E+01 0.30806304954E+01 0.36938449104E+01 0.46569368165E+01
 0.60535150983E+01 0.79615466294E+01 0.10769108157E+02 0.14662075732E+02 0.19354637920E+02
 0.24205987104E+02 0.28430391594E+02 0.31303411863E+02 0.32321164918E+02 0.31303416381E+02
 0.28430409433E+02 0.24206024708E+02 0.11676072269E+02 0.90948262724E+01 0.71185574458E+01
 0.56188189151E+01 0.44576523517E+01 0.36303492275E+01 0.30792588381E+01 0.27312283432E+01
 0.25277553239E+01 0.24333975398E+01 0.24330878100E+01 0.25274524746E+01 0.27316037882E+01
 0.30797264393E+01 0.36301658732E+01 0.44572405870E+01 0.56188607392E+01 0.71187489340E+01
 0.90946760247E+01 0.11675954110E+02 0.14662199800E+02 0.17601501842E+02 0.19955243136E+02
 0.21263057578E+02 0.21263383566E+02 0.19955652866E+02 0.17601357516E+02 0.14661919354E+02
 0.75475592873E+01 0.62299500735E+01 0.51010491617E+01 0.42010777558E+01 0.35396997589E+01
 0.30811492510E+01 0.27749974746E+01 0.25793402986E+01 0.24691101361E+01 0.24332981152E+01
 0.24691172278E+01 0.25793488201E+01 0.27750029831E+01 0.30811518396E+01 0.35397087223E+01
 0.42011024885E+01 0.51010891060E+01 0.62300011769E+01 0.75475975482E+01 0.90947138543E+01
 0.10769363323E+02 0.12305083390E+02 0.13389146949E+02 0.13780370614E+02 0.13389170463E+02
 0.12305114298E+02 0.10769381214E+02 0.90947039754E+01 0.53536965026E+01 0.45682516867E+01
 0.39267231212E+01 0.34408351516E+01 0.30920911001E+01 0.28494335018E+01 0.26844782972E+01
 0.25795159196E+01 0.25276024201E+01 0.25275882594E+01 0.25794467753E+01 0.26843398926E+01
 0.28493124880E+01 0.30921118297E+01 0.34410172335E+01 0.39269431059E+01 0.45683451458E+01
 0.53536115898E+01 0.62299266565E+01 0.71186131492E+01 0.79615349120E+01 0.86452882271E+01
 0.90320949847E+01 0.90319800968E+01 0.86450562150E+01 0.79613990884E+01 0.71186709010E+01
 0.62300852544E+01 0.40788544593E+01 0.36696565558E+01 0.33533065929E+01 0.31228236065E+01
 0.29609145917E+01 0.28493240607E+01 0.27749737167E+01 0.27314698294E+01 0.27170238709E+01
 0.27314797208E+01 0.27749845025E+01 0.28493242054E+01 0.29609006985E+01 0.31228027977E+01
 0.33532916873E+01 0.36696632429E+01 0.40788848216E+01 0.45683568632E+01 0.51010706254E+01
 0.56187366718E+01 0.60532784124E+01 0.63425459119E+01 0.64441117859E+01 0.63425393814E+01
 0.60532608386E+01 0.56187051924E+01 0.51010300617E+01 0.45683146695E+01 0.34543891543E+01
 0.32932800196E+01 0.31857525437E+01 0.31229248962E+01 0.30921310562E+01 0.30809379151E+01
 0.30793659324E+01 0.30805054836E+01 0.30806442978E+01 0.30796161744E+01 0.30810517994E+01
 0.30920863099E+01 0.31228166001E+01 0.31855863391E+01 0.32930837931E+01 0.34543446956E+01
 0.36696770453E+01 0.39269686257E+01 0.42011749239E+01 0.44573508519E+01 0.46569506189E+01
 0.47665409747E+01 0.47666213349E+01 0.46571611365E+01 0.44575476162E+01 0.42011484677E+01
 0.39267157771E+01 0.36694706033E+01 0.32717162448E+01 0.32931381809E+01 0.33533427643E+01
 0.34410248828E+01 0.35397166727E+01 0.36302906720E+01 0.36940986542E+01 0.37171249841E+01
 0.36941000769E+01 0.36302899406E+01 0.35397087223E+01 0.34410055161E+01 0.33533101678E+01
 0.32930975955E+01 0.32716731827E+01 0.32930975955E+01 0.33533101678E+01 0.34410055161E+01
 0.35397087223E+01 0.36302899406E+01 0.36941000769E+01 0.37171249841E+01 0.36940986542E+01
 0.36302906720E+01 0.35397166727E+01 0.34410248828E+01 0.33533427643E+01 0.32931381809E+01
 0.34543891543E+01 0.36694706033E+01 0.39267157771E+01 0.42011484677E+01 0.44575476162E+01
 0.46571611365E+01 0.47666213349E+01 0.47665409747E+01 0.46569506189E+01 0.44573508519E+01
 0.42011749239E+01 0.39269686257E+01 0.36696770453E+01 0.34543446956E+01 0.32930837931E+01
 0.31855863391E+01 0.31228166001E+01 0.30920863099E+01 0.30810517994E+01 0.30796161744E+01
 0.30806442978E+01 0.30805054836E+01 0.30793659324E+01 0.30809379151E+01 0.30921310562E+01
 0.31229248962E+01 0.31857525437E+01 0.32932800196E+01 0.40788544593E+01 0.45683146695E+01
 0.51010300617E+01 0.56187051924E+01 0.60532608386E+01 0.63425393814E+01 0.64441117859E+01
 0.63425459119E+01 0.60532784124E+01 0.56187366718E+01 0.51010706254E+01 0.45683568632E+01
 0.40788848216E+01 0.36696632429E+01 0.33532916873E+01 0.31228027977E+01 0.29609006985E+01
 0.28493242054E+01 0.27749845025E+01 0.27314797208E+01 0.27170238709E+01 0.27314698294E+01
 0.27749737167E+01 0.28493240607E+01 0.29609145917E+01 0.31228236065E+01 0.33533065929E+01
 0.36696565558E+01 0.53536965026E+01 0.62300852544E+01 0.71186709010E+01 0.79613990884E+01
 0.86450562150E+01 0.90319800968E+01 0.90320949847E+01 0.86452882271E+01 0.79615349120E+01
 0.71186131492E+01 0.62299266565E+01 0.53536115898E+01 0.45683451458E+01 0.39269431059E+01
 0.34410172335E+01 0.30921118297E+01 0.28493124880E+01 0.26843398926E+01 0.25794467753E+01
 0.25275882594E+01 0.25276024201E+01 0.25795159196E+01 0.26844782972E+01 0.28494335018E+01
 0.30920911001E+01 0.34408351516E+01 0.39267231212E+01 0.45682516867E+01 0.75475592873E+01
 0.90947039754E+01 0.10769381214E+02 0.12305114298E+02 0.13389170463E+02 0.13780370614E+02
 0.13389146949E+02 0.12305083390E+02 0.10769363323E+02 0.90947138543E+01 0.75475975482E+01
 0.62300011769E+01 0.51010891060E+01 0.42011024885E+01 0.35397087223E+01 0.30811518396E+01
 0.27750029831E+01 0.25793488201E+01 0.24691172278E+01 0.24332981152E+01 0.24691101361E+01
 0.25793402986E+01 0.27749974746E+01 0.30811492510E+01 0.35396997589E+01 0.42010777558E+01
 0.51010491617E+01 0.62299500735E+01 0.11676072269E+02 0.14661919354E+02 0.17601357516E+02
 0.19955652866E+02 0.21263383566E+02 0.21263057578E+02 0.19955243136E+02 0.17601501842E+02
 0.14662199800E+02 0.11675954110E+02 0.90946760247E+01 0.71187489340E+01 0.56188607392E+01
 0.44572405870E+01 0.36301658732E+01 0.30797264393E+01 0.27316037882E+01 0.25274524746E+01
 0.24330878100E+01 0.24333975398E+01 0.25277553239E+01 0.27312283432E+01 0.30792588381E+01
 0.36303492275E+01 0.44576523517E+01 0.56188189151E+01 0.71185574458E+01 0.90948262724E+01
 0.19354693524E+02 0.24206024708E+02 0.28430409433E+02 0.31303416381E+02 0.32321164918E+02
 0.31303411863E+02 0.28430391594E+02 0.24205987104E+02 0.19354637920E+02 0.14662075732E+02
 0.10769108157E+02 0.79615466294E+01 0.60535150983E+01 0.46569368165E+01 0.36938449104E+01
 0.30806304954E+01 0.27172605568E+01 0.25276141375E+01 0.24688549696E+01 0.25276312565E+01
 0.27172817123E+01 0.30806410196E+01 0.36938372437E+01 0.46569215000E+01 0.60535073532E+01
 0.79615651305E+01 0.10769153409E+02 0.14662134043E+02 0.31320527289E+02 0.37926256566E+02
 0.43018163802E+02 0.45790960192E+02 0.45791348048E+02 0.43018542396E+02 0.37925846405E+02
 0.31320111548E+02 0.24206191591E+02 0.17601582262E+02 0.12304792665E+02 0.86450720226E+01
 0.63427503990E+01 0.47667316593E+01 0.37169204971E+01 0.30803147989E+01 0.27316743165E+01
 0.25797321241E+01 0.25792220493E+01 0.27311479235E+01 0.30808455066E+01 0.37175967055E+01
 0.47664172770E+01 0.63421738248E+01 0.86452875010E+01 0.12305188040E+02 0.17601287239E+02
 0.24205864523E+02 0.47251943419E+02 0.55151193945E+02 0.60466206838E+02 0.62344436481E+02
 0.60466263519E+02 0.55151281060E+02 0.47252020216E+02 0.37925805498E+02 0.28430646760E+02
 0.19955612598E+02 0.13389146949E+02 0.90318378726E+01 0.64441302664E+01 0.47668805321E+01
 0.36940986542E+01 0.30791343401E+01 0.27749921972E+01 0.26847119745E+01 0.27749974746E+01
 0.30791375107E+01 0.36940924101E+01 0.47668671588E+01 0.64441208067E+01 0.90318465359E+01
 0.13389172972E+02 0.19955642571E+02 0.28430652571E+02 0.37925767643E+02 0.66285274126E+02
 0.74926327821E+02 0.79686146923E+02 0.79686201575E+02 0.74926556751E+02 0.66285608444E+02
 0.55151112095E+02 0.43018261479E+02 0.31303335432E+02 0.21263258076E+02 0.13780533282E+02
 0.90319153839E+01 0.63424629511E+01 0.46572513693E+01 0.36303671023E+01 0.30808476824E+01
 0.28492476303E+01 0.28494982147E+01 0.30811394435E+01 0.36301487298E+01 0.46568450696E+01
 0.63424547423E+01 0.90321683610E+01 0.13780576416E+02 0.21263161692E+02 0.31303436730E+02
 0.43018433596E+02 0.55150997792E+02 0.87476017517E+02 0.96166042757E+02 0.99293710990E+02
 0.96166026190E+02 0.87475999641E+02 0.74926633182E+02 0.60466150683E+02 0.45791143561E+02
 0.32321022588E+02 0.21263259499E+02 0.13389057627E+02 0.86450679324E+01 0.60533551943E+01
 0.44575338137E+01 0.35396038365E+01 0.30921172537E+01 0.29610089474E+01 0.30921028175E+01
 0.35395869227E+01 0.44575282844E+01 0.60533650229E+01 0.86450830139E+01 0.13389060136E+02
 0.21263238122E+02 0.32320980142E+02 0.45791099032E+02 0.60466124279E+02 0.74926632377E+02
 0.10948746422E+03 0.11705087870E+03 0.11705001658E+03 0.10948630886E+03 0.96166295014E+02
 0.79686546830E+02 0.62344413052E+02 0.45790895856E+02 0.31303685205E+02 0.19955797622E+02
 0.12304759237E+02 0.79611185471E+01 0.56189740163E+01 0.42014034891E+01 0.34407560590E+01
 0.31226698748E+01 0.31230924304E+01 0.34411156929E+01 0.42008951697E+01 0.56186741586E+01
 0.79618339544E+01 0.12305252377E+02 0.19955128352E+02 0.31303091476E+02 0.45791367856E+02
 0.62344759472E+02 0.79685903693E+02 0.96166071880E+02 0.12978307482E+03 0.13445334229E+03
 0.12978296263E+03 0.11704964832E+03 0.99293823826E+02 0.79686707586E+02 0.60466206838E+02
 0.43017731196E+02 0.28430664600E+02 0.17602118677E+02 0.10769381214E+02 0.71180220900E+01
 0.51010485422E+01 0.39273666730E+01 0.33533427643E+01 0.31851292526E+01 0.33533250734E+01
 0.39273484974E+01 0.51010491617E+01 0.71180444197E+01 0.10769408576E+02 0.17602128820E+02
 0.28430652571E+02 0.43017720072E+02 0.60466237115E+02 0.79686809611E+02 0.99293987136E+02
 0.11704982169E+03 0.14452695619E+03 0.14452837747E+03 0.13445328691E+03 0.11705002816E+03
 0.96165461042E+02 0.74926833105E+02 0.55151530265E+02 0.37925470364E+02 0.24205442993E+02
 0.14662625136E+02 0.90953719282E+01 0.62295152568E+01 0.45677329545E+01 0.36700661207E+01
 0.32937198959E+01 0.32926845021E+01 0.36690748408E+01 0.45688216843E+01 0.62304455507E+01
 0.90941204900E+01 0.14661552328E+02 0.24206650725E+02 0.37926594753E+02 0.55150492507E+02
 0.74926050662E+02 0.96166922419E+02 0.11705104050E+03 0.13445165287E+03 0.14452695619E+03
 0.13445165287E+03 0.11705104050E+03 0.96166922419E+02 0.74926050662E+02 0.55150492507E+02
 0.37926594753E+02 0.24206650725E+02 0.14661552328E+02 0.90941204900E+01 0.62304455507E+01
 0.45688216843E+01 0.36690748408E+01 0.32926845021E+01 0.32937198959E+01 0.36700661207E+01
 0.45677329545E+01 0.62295152568E+01 0.90953719282E+01 0.14662625136E+02 0.24205442993E+02
 0.37925470364E+02 0.55151530265E+02 0.74926833105E+02 0.96165461042E+02 0.11705002816E+03
 0.13445328691E+03 0.14452837747E+03 0.13445221166E+03 0.12107681548E+03 0.10251269898E+03
 0.82143465122E+02 0.62300973474E+02 0.44353877943E+02 0.29344358895E+02 0.18157842265E+02
 0.11058531857E+02 0.72581430064E+01 0.51862757038E+01 0.39804370074E+01 0.33901136565E+01
 0.32171488076E+01 0.33902304048E+01 0.39804916051E+01 0.51862153015E+01 0.72581489041E+01
 0.11058742417E+02 0.18158106170E+02 0.29344357027E+02 0.44353460289E+02 0.62300334311E+02
 0.82143032130E+02 0.10251280849E+03 0.12107738442E+03 0.13445274121E+03 0.13936984568E+03
 0.11705081956E+03 0.10251232016E+03 0.84715126921E+02 0.66200698684E+02 0.48666539553E+02
 0.33335811664E+02 0.21255282765E+02 0.13024182008E+02 0.83120064504E+01 0.58173384323E+01
 0.43233035327E+01 0.35208796962E+01 0.31849310462E+01 0.31843544593E+01 0.35203804308E+01
 0.43239978817E+01 0.58178282582E+01 0.83112194674E+01 0.13023711118E+02 0.21256243987E+02
 0.33336395866E+02 0.48665417068E+02 0.66199735107E+02 0.84715902150E+02 0.10251313125E+03
 0.11705003628E+03 0.12536176044E+03 0.12536255035E+03 0.96166619705E+02 0.82142750039E+02
 0.66200065768E+02 0.50184729607E+02 0.35515492651E+02 0.23385501485E+02 0.14622522537E+02
 0.92673901380E+01 0.63857987614E+01 0.46633403188E+01 0.36680723155E+01 0.31833386781E+01
 0.30416071892E+01 0.31833029022E+01 0.36680854404E+01 0.46633698821E+01 0.63857165128E+01
 0.92672219537E+01 0.14622462951E+02 0.23385646062E+02 0.35515721644E+02 0.50184884710E+02
 0.66200072999E+02 0.82142570819E+02 0.96166289281E+02 0.10599053343E+03 0.10954928649E+03
 0.10599081548E+03 0.74926646645E+02 0.62300999877E+02 0.48666168694E+02 0.35515218341E+02
 0.24143356719E+02 0.15519789617E+02 0.99443586038E+01 0.68175735734E+01 0.49527872790E+01
 0.38110337758E+01 0.32009909916E+01 0.29447309506E+01 0.29446505084E+01 0.32008675933E+01
 0.38110487614E+01 0.49529125691E+01 0.68175957413E+01 0.99442145174E+01 0.15519708809E+02
 0.24143534449E+02 0.35515474070E+02 0.48666174806E+02 0.62300789765E+02 0.74926575383E+02
 0.84841540041E+02 0.90354175773E+02 0.90354035940E+02 0.84841351343E+02 0.55151066038E+02
 0.44354427789E+02 0.33336182496E+02 0.23385680472E+02 0.15519787763E+02 0.10189369626E+02
 0.70547694981E+01 0.51481344594E+01 0.39246442515E+01 0.32246662646E+01 0.28808375928E+01
 0.27793121035E+01 0.28808217031E+01 0.32246569133E+01 0.39246690937E+01 0.51482017990E+01
 0.70548498107E+01 0.10189409492E+02 0.15519746907E+02 0.23385573088E+02 0.33336085000E+02
 0.44354432747E+02 0.55151213704E+02 0.64338440708E+02 0.70563725164E+02 0.72774278194E+02
 0.70563553325E+02 0.64338212513E+02 0.37926219533E+02 0.29344172514E+02 0.21255450932E+02
 0.14622979761E+02 0.99445824970E+01 0.70545970828E+01 0.52167262684E+01 0.39881400143E+01
 0.32446009689E+01 0.28410215406E+01 0.26677755671E+01 0.26682304666E+01 0.28415043192E+01
 0.32441801135E+01 0.39876212065E+01 0.52170618237E+01 0.70550656631E+01 0.99442651017E+01
 0.14622551744E+02 0.21255802302E+02 0.29344667169E+02 0.37925967425E+02 0.45837911815E+02
 0.51931145701E+02 0.55253780781E+02 0.55253550929E+02 0.51931033384E+02 0.45838377073E+02
 0.24206377115E+02 0.18157156939E+02 0.13023540581E+02 0.92673802191E+01 0.68178772736E+01
 0.51479880990E+01 0.39876764571E+01 0.32519590714E+01 0.28224529285E+01 0.26025602579E+01
 0.25353733607E+01 0.26025930430E+01 0.28224378545E+01 0.32518509157E+01 0.39875299871E+01
 0.51478984395E+01 0.68178994864E+01 0.92675089540E+01 0.13023728953E+02 0.18157299974E+02
 0.24206350808E+02 0.30348303079E+02 0.35636842256E+02 0.39213556041E+02 0.40478095558E+02
 0.39213817495E+02 0.35637199152E+02 0.30348546112E+02 0.14662289074E+02 0.11058726971E+02
 0.83115129875E+01 0.63853748375E+01 0.49529280416E+01 0.39248132362E+01 0.32442534151E+01
 0.28219986705E+01 0.25809758774E+01 0.24715702871E+01 0.24712110330E+01 0.25805856960E+01
 0.28223024986E+01 0.32446260985E+01 0.39245300761E+01 0.49525589638E+01 0.63856233121E+01
 0.83118479765E+01 0.11058496503E+02 0.14661991075E+02 0.18756923146E+02 0.22715080934E+02
 0.25843960683E+02 0.27569814651E+02 0.27570163198E+02 0.25844389432E+02 0.22714933949E+02
 0.18756724966E+02 0.90946799834E+01 0.72590001362E+01 0.58177304033E+01 0.46632229022E+01
 0.38110227112E+01 0.32249735493E+01 0.28412121590E+01 0.26024063803E+01 0.24713891226E+01
 0.24295324760E+01 0.24713877483E+01 0.26024222130E+01 0.28413015885E+01 0.32251342137E+01
 0.38111117262E+01 0.46630987187E+01 0.58174924373E+01 0.72588961628E+01 0.90947918776E+01
 0.11361630285E+02 0.13818109222E+02 0.16045983531E+02 0.17602690837E+02 0.18161408614E+02
 0.17602784504E+02 0.16046077776E+02 0.13818079196E+02 0.11361467778E+02 0.62298369589E+01
 0.51863043067E+01 0.43237025118E+01 0.36683146390E+01 0.32009868195E+01 0.28808838700E+01
 0.26680063788E+01 0.25356184430E+01 0.24713253460E+01 0.24714120370E+01 0.25357156672E+01
 0.26679378818E+01 0.28807953470E+01 0.32010528381E+01 0.36684118914E+01 0.43236653429E+01
 0.51862561234E+01 0.62299453184E+01 0.73971033416E+01 0.86824325524E+01 0.99677907000E+01
 0.11025828649E+02 0.11625565922E+02 0.11625532117E+02 0.11025820548E+02 0.99678704173E+01
 0.86824478543E+01 0.73969669963E+01 0.45682766432E+01 0.39797449847E+01 0.35205053667E+01
 0.31833309915E+01 0.29447639065E+01 0.27791614401E+01 0.26680365120E+01 0.26025952753E+01
 0.25807657157E+01 0.26025666321E+01 0.26679588564E+01 0.27790247159E+01 0.29446322692E+01
 0.31833321250E+01 0.35206960417E+01 0.39799964386E+01 0.45683794743E+01 0.52637431049E+01
 0.60094030959E+01 0.67236030185E+01 0.73347188344E+01 0.77586586673E+01 0.79113765331E+01
 0.77585450198E+01 0.73346034654E+01 0.67236110172E+01 0.60095344328E+01 0.52638360879E+01
 0.36696714956E+01 0.33901714017E+01 0.31845751200E+01 0.30413190396E+01 0.29446511794E+01
 0.28808517244E+01 0.28412943030E+01 0.28221207331E+01 0.28221624070E+01 0.28413409341E+01
 0.28808144538E+01 0.29445868024E+01 0.30413141167E+01 0.31845877978E+01 0.33901378085E+01
 0.36696481448E+01 0.40229200778E+01 0.44316136276E+01 0.48578179576E+01 0.52491844588E+01
 0.55497700040E+01 0.57131041883E+01 0.57130803864E+01 0.55497440290E+01 0.52491940655E+01
 0.48578066004E+01 0.44315433141E+01 0.40228672072E+01 0.32932342741E+01 0.32178855711E+01
 0.31847520045E+01 0.31833068077E+01 0.32008533989E+01 0.32248438318E+01 0.32443732428E+01
 0.32518167235E+01 0.32444422308E+01 0.32250138475E+01 0.32010291515E+01 0.31833048582E+01
 0.31845444557E+01 0.32176401268E+01 0.32931030045E+01 0.34156858020E+01 0.35812411913E+01
 0.37752340004E+01 0.39737899070E+01 0.41473484949E+01 0.42664971758E+01 0.43090980337E+01
 0.42667246814E+01 0.41475257142E+01 0.39737367067E+01 0.37750456966E+01 0.35810967941E+01
 0.34156687106E+01 0.32931430384E+01 0.33902073442E+01 0.35207394445E+01 0.36683772271E+01
 0.38110879542E+01 0.39246709888E+01 0.39878120528E+01 0.39878208854E+01 0.39246853214E+01
 0.38110914260E+01 0.36683719261E+01 0.35207199771E+01 0.33901587741E+01 0.32930820716E+01
 0.32380925635E+01 0.32252649436E+01 0.32472767327E+01 0.32919120832E+01 0.33446279764E+01
 0.33906542180E+01 0.34173802073E+01 0.34173651797E+01 0.33906427107E+01 0.33446578089E+01
 0.32919541949E+01 0.32472886274E+01 0.32252636593E+01 0.32381237750E+01 0.36695383701E+01
 0.39797890684E+01 0.43235973102E+01 0.46633657002E+01 0.49529703298E+01 0.51480514291E+01
 0.52168484322E+01 0.51479041765E+01 0.49527603466E+01 0.46632409614E+01 0.43236663575E+01
 0.39799999433E+01 0.36697149327E+01 0.34157114393E+01 0.32252219893E+01 0.30928504488E+01
 0.30062249589E+01 0.29520124783E+01 0.29197666790E+01 0.29027838392E+01 0.28974329512E+01
 0.29026179598E+01 0.29195946522E+01 0.29519819936E+01 0.30063514357E+01 0.30930426899E+01
 0.32253613268E+01 0.34156979445E+01 0.45683240860E+01 0.51862628785E+01 0.58174720873E+01
 0.63854313285E+01 0.68175908890E+01 0.70548755241E+01 0.70548640234E+01 0.68175907611E+01
 0.63854776972E+01 0.58175247920E+01 0.51862816264E+01 0.45683418150E+01 0.40229145545E+01
 0.35812781120E+01 0.32472636272E+01 0.30061674413E+01 0.28364689047E+01 0.27194786279E+01
 0.26441628761E+01 0.26066790660E+01 0.26066929370E+01 0.26441672813E+01 0.27194414895E+01
 0.28364390219E+01 0.30061891381E+01 0.32472936508E+01 0.35812590946E+01 0.40228727305E+01
 0.62300607552E+01 0.72588399543E+01 0.83116167246E+01 0.92672673239E+01 0.99441955759E+01
 0.10189550697E+02 0.99444615866E+01 0.92675218540E+01 0.83116629265E+01 0.72587300833E+01
 0.62299232955E+01 0.52637616464E+01 0.44315685798E+01 0.37751882871E+01 0.32919355612E+01
 0.29520344295E+01 0.27194414642E+01 0.25662898649E+01 0.24775902617E+01 0.24482762745E+01
 0.24776159492E+01 0.25664024414E+01 0.27195691095E+01 0.29520035867E+01 0.32917331124E+01
 0.37749949794E+01 0.44315271984E+01 0.52638490626E+01 0.90948559025E+01 0.11058641094E+02
 0.13024001068E+02 0.14622828233E+02 0.15519813948E+02 0.15519672086E+02 0.14622673527E+02
 0.13024094628E+02 0.11058720159E+02 0.90946965208E+01 0.73969943132E+01 0.60095010076E+01
 0.48579066294E+01 0.39736934656E+01 0.33445589134E+01 0.29198844911E+01 0.26442451516E+01
 0.24774922164E+01 0.23983121670E+01 0.23984801225E+01 0.24776663190E+01 0.26440824580E+01
 0.29196991219E+01 0.33446983596E+01 0.39738571049E+01 0.48577424334E+01 0.60092788143E+01
 0.73970760246E+01 0.14662267961E+02 0.18157388933E+02 0.21255660823E+02 0.23385646781E+02
 0.24143769058E+02 0.23385414809E+02 0.21255409570E+02 0.18157310612E+02 0.14662368467E+02
 0.11361764349E+02 0.86822543548E+01 0.67236114233E+01 0.52494269774E+01 0.41473654712E+01
 0.33904315996E+01 0.29027887394E+01 0.26069128839E+01 0.24482462092E+01 0.23981826157E+01
 0.24482491844E+01 0.26068420023E+01 0.29026594737E+01 0.33903794230E+01 0.41474671012E+01
 0.52495913763E+01 0.67236864099E+01 0.86821877136E+01 0.11361612478E+02 0.24206222661E+02
 0.29344577864E+02 0.33335840417E+02 0.35515250498E+02 0.35515657755E+02 0.33336290170E+02
 0.29344273991E+02 0.24205860633E+02 0.18756966068E+02 0.13818318618E+02 0.99676225592E+01
 0.73344990048E+01 0.55499530176E+01 0.42667108595E+01 0.34171727530E+01 0.28971927400E+01
 0.26068814739E+01 0.24778298339E+01 0.24773888349E+01 0.26064241974E+01 0.28976207073E+01
 0.34176589013E+01 0.42663283787E+01 0.55494585613E+01 0.73348249227E+01 0.99681077430E+01
 0.13818108129E+02 0.18756682044E+02 0.37926022700E+02 0.44354478716E+02 0.48665801396E+02
 0.50184593933E+02 0.48666158484E+02 0.44354901328E+02 0.37926156654E+02 0.30347987944E+02
 0.22714903807E+02 0.16046144828E+02 0.11025796120E+02 0.77583464231E+01 0.57130663440E+01
 0.43093796968E+01 0.34173773512E+01 0.29023078414E+01 0.26441367326E+01 0.25667298180E+01
 0.26441682908E+01 0.29023549364E+01 0.34174490479E+01 0.43094582453E+01 0.57130464734E+01
 0.77581770195E+01 0.11025643722E+02 0.16046251166E+02 0.22715246153E+02 0.30348229478E+02
 0.55150771335E+02 0.62300482245E+02 0.66200265402E+02 0.66200187303E+02 0.62300652159E+02
 0.55151386370E+02 0.45838273942E+02 0.35636961990E+02 0.25843949770E+02 0.17602848645E+02
 0.11625697238E+02 0.79112252539E+01 0.57129323827E+01 0.42668815326E+01 0.33908139921E+01
 0.29194615812E+01 0.27192851092E+01 0.27197238337E+01 0.29199394663E+01 0.33904241381E+01
 0.42663630894E+01 0.57132098646E+01 0.79116727767E+01 0.11625443928E+02 0.17602482007E+02
 0.25844305516E+02 0.35637458477E+02 0.45838014945E+02 0.74926190532E+02 0.82142318610E+02
 0.84715604889E+02 0.82142570299E+02 0.74926529786E+02 0.64338290445E+02 0.51931039188E+02
 0.39213565440E+02 0.27569916456E+02 0.18161558858E+02 0.11625645817E+02 0.77585521858E+01
 0.55497085456E+01 0.41475586014E+01 0.33447287468E+01 0.29519856549E+01 0.28363921546E+01
 0.29519869623E+01 0.33446942022E+01 0.41474658624E+01 0.55495928255E+01 0.77584898425E+01
 0.11625688777E+02 0.18161695274E+02 0.27570077871E+02 0.39213660310E+02 0.51930983471E+02
 0.64338051167E+02 0.96166153958E+02 0.10251294133E+03 0.10251266940E+03 0.96165910067E+02
 0.84841636974E+02 0.70563850292E+02 0.55253488425E+02 0.40477698827E+02 0.27570119368E+02
 0.17602918477E+02 0.11025761404E+02 0.73344823839E+01 0.52492903269E+01 0.39738741287E+01
 0.32918582028E+01 0.30062135374E+01 0.30062909229E+01 0.32918672938E+01 0.39736886503E+01
 0.52492763109E+01 0.73347381706E+01 0.11025770378E+02 0.17602551151E+02 0.27570043376E+02
 0.40478161487E+02 0.55253723917E+02 0.70563416287E+02 0.84841254411E+02 0.11705059197E+03
 0.12107852223E+03 0.11705042332E+03 0.10599012944E+03 0.90354159336E+02 0.72774866160E+02
 0.55253752360E+02 0.39213397415E+02 0.25844213703E+02 0.16046358456E+02 0.99678551281E+01
 0.67232019408E+01 0.48577746644E+01 0.37754467433E+01 0.32473193201E+01 0.30926413668E+01
 0.32472744410E+01 0.37754417393E+01 0.48578431402E+01 0.67232890312E+01 0.99679105908E+01
 0.16046370549E+02 0.25844153424E+02 0.39213250812E+02 0.55253609019E+02 0.72774875246E+02
 0.90354357195E+02 0.10599038938E+03 0.13445224784E+03 0.13445318780E+03 0.12536258476E+03
 0.10954910975E+03 0.90353602985E+02 0.70564011890E+02 0.51931689538E+02 0.35637037339E+02
 0.22714634906E+02 0.13818523218E+02 0.86828731969E+01 0.60091072794E+01 0.44311149200E+01
 0.35815431118E+01 0.32257289672E+01 0.32249560254E+01 0.35808309453E+01 0.44319781942E+01
 0.60098131852E+01 0.86819571348E+01 0.13817871071E+02 0.22715708320E+02 0.35637752503E+02
 0.51930460393E+02 0.70563074318E+02 0.90354810241E+02 0.10955029759E+03 0.12536172602E+03
 0.14452702057E+03 0.13936913566E+03 0.12536297018E+03 0.10599081380E+03 0.84840584388E+02
 0.64338050002E+02 0.45838974894E+02 0.30348554345E+02 0.18756113372E+02 0.11361610074E+02
 0.73977832589E+01 0.52638420890E+01 0.40221245213E+01 0.34157004410E+01 0.32388988232E+01
 0.34157004410E+01 0.40221245213E+01 0.52638420890E+01 0.73977832589E+01 0.11361610074E+02
 0.18756113372E+02 0.30348554345E+02 0.45838974894E+02 0.64338050002E+02 0.84840584388E+02
 0.10599081380E+03 0.12536297018E+03 0.13936913566E+03 0.12978307482E+03 0.11704982169E+03
 0.99293987136E+02 0.79686809611E+02 0.60466237115E+02 0.43017720072E+02 0.28430652571E+02
 0.17602128820E+02 0.10769408576E+02 0.71180444197E+01 0.51010491617E+01 0.39273484974E+01
 0.33533250734E+01 0.31851292526E+01 0.33533427643E+01 0.39273666730E+01 0.51010485422E+01
 0.71180220900E+01 0.10769381214E+02 0.17602118677E+02 0.28430664600E+02 0.43017731196E+02
 0.60466206838E+02 0.79686707586E+02 0.99293823826E+02 0.11704964832E+03 0.12978296263E+03
 0.13445334229E+03 0.11705081956E+03 0.10251232016E+03 0.84715126921E+02 0.66200698684E+02
 0.48666539553E+02 0.33335811664E+02 0.21255282765E+02 0.13024182008E+02 0.83120064504E+01
 0.58173384323E+01 0.43233035327E+01 0.35208796962E+01 0.31849310462E+01 0.31843544593E+01
 0.35203804308E+01 0.43239978817E+01 0.58178282582E+01 0.83112194674E+01 0.13023711118E+02
 0.21256243987E+02 0.33336395866E+02 0.48665417068E+02 0.66199735107E+02 0.84715902150E+02
 0.10251313125E+03 0.11705003628E+03 0.12536176044E+03 0.12536255035E+03 0.99294310972E+02
 0.84715490792E+02 0.68225654249E+02 0.51729254523E+02 0.36640643149E+02 0.24139097548E+02