   1   1   0   0
  0.1924022E+02  0.3007749E-09  0.3007749E-09  0.3007749E-09  0.5000000E-15
  1.000000000000000E-004
  CAR 
 unknown system                          
     27.43901882     -1.95100484  301      6.86158024      1.00000000
     -1.951  0.0000E+00  0.0000E+00
     -1.853  0.0000E+00  0.0000E+00
     -1.755  0.0000E+00  0.0000E+00
     -1.657  0.0000E+00  0.0000E+00
     -1.559 -0.5037E-30 -0.4934E-31
     -1.461 -0.9805E-27 -0.9610E-28
     -1.363 -0.1176E-23 -0.1153E-24
     -1.265 -0.8692E-21 -0.8527E-22
     -1.167 -0.3951E-18 -0.3879E-19
     -1.069 -0.1068E-15 -0.1050E-16
     -0.971 -0.1820E-13 -0.1794E-14
     -0.873 -0.1893E-11 -0.1873E-12
     -0.775 -0.1198E-09 -0.1193E-10
     -0.677 -0.4584E-08 -0.4610E-09
     -0.579 -0.1049E-06 -0.1074E-07
     -0.482 -0.1407E-05 -0.1486E-06
     -0.384 -0.1064E-04 -0.1191E-05
     -0.286 -0.4074E-04 -0.5182E-05
     -0.188 -0.4599E-04 -0.9688E-05
     -0.090  0.1705E-03  0.7020E-05
      0.008  0.6392E-03  0.6964E-04
      0.106  0.9491E-03  0.1626E-03
      0.204  0.1331E-02  0.2931E-03
      0.302  0.2404E-02  0.5285E-03
      0.400  0.3108E-02  0.8331E-03
      0.498  0.2898E-02  0.1117E-02
      0.596  0.2967E-02  0.1408E-02
      0.694  0.3183E-02  0.1719E-02
      0.792  0.3338E-02  0.2046E-02
      0.890  0.3636E-02  0.2403E-02
      0.988  0.4207E-02  0.2815E-02
      1.086  0.7387E-02  0.3538E-02
      1.184  0.1691E-01  0.5195E-02
      1.282  0.3640E-01  0.8761E-02
      1.380  0.6565E-01  0.1519E-01
      1.478  0.9964E-01  0.2495E-01
      1.576  0.1284E+00  0.3753E-01
      1.674  0.1380E+00  0.5105E-01
      1.772  0.1270E+00  0.6349E-01
      1.870  0.1077E+00  0.7404E-01
      1.968  0.9277E-01  0.8313E-01
      2.066  0.9091E-01  0.9203E-01
      2.164  0.9999E-01  0.1018E+00
      2.262  0.1064E+00  0.1123E+00
      2.360  0.1061E+00  0.1226E+00
      2.457  0.1130E+00  0.1337E+00
      2.555  0.1344E+00  0.1469E+00
      2.653  0.1551E+00  0.1621E+00
      2.751  0.1549E+00  0.1773E+00
      2.849  0.1344E+00  0.1904E+00
      2.947  0.1155E+00  0.2017E+00
      3.045  0.1124E+00  0.2127E+00
      3.143  0.1184E+00  0.2243E+00
      3.241  0.1244E+00  0.2365E+00
      3.339  0.1278E+00  0.2491E+00
      3.437  0.1263E+00  0.2614E+00
      3.535  0.1170E+00  0.2729E+00
      3.633  0.1068E+00  0.2834E+00
      3.731  0.1141E+00  0.2945E+00
      3.829  0.1420E+00  0.3084E+00
      3.927  0.1587E+00  0.3240E+00
      4.025  0.1291E+00  0.3366E+00
      4.123  0.6701E-01  0.3432E+00
      4.221  0.1733E-01  0.3449E+00
      4.319  0.1670E-02  0.3451E+00
      4.417  0.7454E-02  0.3458E+00
      4.515  0.1383E-01  0.3472E+00
      4.613  0.1365E-01  0.3485E+00
      4.711  0.9510E-02  0.3494E+00
      4.809  0.4813E-02  0.3499E+00
      4.907  0.2632E-02  0.3501E+00
      5.005  0.1913E-02  0.3503E+00
      5.103  0.1689E-02  0.3505E+00
      5.201  0.4843E-02  0.3510E+00
      5.299  0.1152E-01  0.3521E+00
      5.397  0.1690E-01  0.3538E+00
      5.494  0.1642E-01  0.3554E+00
      5.592  0.1038E-01  0.3564E+00
      5.690  0.3665E-02  0.3567E+00
      5.788  0.2185E-02  0.3570E+00
      5.886  0.6680E-02  0.3576E+00
      5.984  0.9671E-02  0.3586E+00
      6.082  0.6312E-02  0.3592E+00
      6.180  0.3524E-02  0.3595E+00
      6.278  0.7697E-02  0.3603E+00
      6.376  0.1299E-01  0.3615E+00
      6.474  0.1191E-01  0.3627E+00
      6.572  0.8747E-02  0.3636E+00
      6.670  0.9848E-02  0.3645E+00
      6.768  0.1139E-01  0.3657E+00
      6.866  0.1082E-01  0.3667E+00
      6.964  0.1172E-01  0.3679E+00
      7.062  0.1109E-01  0.3689E+00
      7.160  0.5387E-02  0.3695E+00
      7.258  0.9164E-04  0.3695E+00
      7.356  0.1300E-02  0.3696E+00
      7.454  0.9600E-02  0.3706E+00
      7.552  0.1812E-01  0.3723E+00
      7.650  0.1826E-01  0.3741E+00
      7.748  0.1226E-01  0.3753E+00
      7.846  0.8775E-02  0.3762E+00
      7.944  0.1009E-01  0.3772E+00
      8.042  0.1143E-01  0.3783E+00
      8.140  0.9088E-02  0.3792E+00
      8.238  0.5589E-02  0.3797E+00
      8.336  0.5850E-02  0.3803E+00
      8.433  0.8037E-02  0.3811E+00
      8.531  0.6596E-02  0.3817E+00
      8.629  0.4134E-02  0.3821E+00
      8.727  0.6528E-02  0.3828E+00
      8.825  0.1198E-01  0.3840E+00
      8.923  0.1509E-01  0.3854E+00
      9.021  0.1403E-01  0.3868E+00
      9.119  0.9981E-02  0.3878E+00
      9.217  0.6355E-02  0.3884E+00
      9.315  0.6562E-02  0.3890E+00
      9.413  0.8244E-02  0.3899E+00
      9.511  0.8253E-02  0.3907E+00
      9.609  0.8832E-02  0.3915E+00
      9.707  0.8685E-02  0.3924E+00
      9.805  0.4773E-02  0.3928E+00
      9.903  0.2475E-02  0.3931E+00
     10.001  0.6945E-02  0.3938E+00
     10.099  0.1379E-01  0.3951E+00
     10.197  0.1580E-01  0.3967E+00
     10.295  0.1166E-01  0.3978E+00
     10.393  0.8346E-02  0.3986E+00
     10.491  0.1315E-01  0.3999E+00
     10.589  0.1899E-01  0.4018E+00
     10.687  0.1522E-01  0.4033E+00
     10.785  0.8021E-02  0.4041E+00
     10.883  0.7942E-02  0.4048E+00
     10.981  0.1163E-01  0.4060E+00
     11.079  0.1110E-01  0.4071E+00
     11.177  0.9094E-02  0.4079E+00
     11.275  0.1022E-01  0.4090E+00
     11.372  0.1122E-01  0.4100E+00
     11.470  0.1078E-01  0.4111E+00
     11.568  0.1238E-01  0.4123E+00
     11.666  0.1417E-01  0.4137E+00
     11.764  0.1191E-01  0.4149E+00
     11.862  0.7091E-02  0.4156E+00
     11.960  0.3308E-02  0.4159E+00
     12.058  0.3835E-02  0.4163E+00
     12.156  0.8758E-02  0.4171E+00
     12.254  0.1454E-01  0.4185E+00
     12.352  0.1793E-01  0.4203E+00
     12.450  0.1670E-01  0.4219E+00
     12.548  0.1137E-01  0.4231E+00
     12.646  0.6403E-02  0.4237E+00
     12.744  0.6412E-02  0.4243E+00
     12.842  0.1021E-01  0.4253E+00
     12.940  0.1237E-01  0.4265E+00
     13.038  0.1300E-01  0.4278E+00
     13.136  0.1549E-01  0.4293E+00
     13.234  0.1633E-01  0.4309E+00
     13.332  0.1272E-01  0.4322E+00
     13.430  0.9889E-02  0.4331E+00
     13.528  0.9555E-02  0.4341E+00
     13.626  0.1057E-01  0.4351E+00
     13.724  0.1578E-01  0.4366E+00
     13.822  0.2317E-01  0.4389E+00
     13.920  0.2587E-01  0.4415E+00
     14.018  0.2226E-01  0.4436E+00
     14.116  0.1575E-01  0.4452E+00
     14.214  0.1087E-01  0.4462E+00
     14.311  0.1007E-01  0.4472E+00
     14.409  0.1061E-01  0.4483E+00
     14.507  0.8348E-02  0.4491E+00
     14.605  0.6209E-02  0.4497E+00
     14.703  0.9195E-02  0.4506E+00
     14.801  0.1285E-01  0.4519E+00
     14.899  0.1548E-01  0.4534E+00
     14.997  0.2269E-01  0.4556E+00
     15.095  0.2850E-01  0.4584E+00
     15.193  0.2215E-01  0.4606E+00
     15.291  0.9133E-02  0.4614E+00
     15.389  0.4006E-02  0.4618E+00
     15.487  0.1099E-01  0.4629E+00
     15.585  0.2210E-01  0.4651E+00
     15.683  0.2713E-01  0.4677E+00
     15.781  0.2336E-01  0.4700E+00
     15.879  0.1755E-01  0.4717E+00
     15.977  0.1410E-01  0.4731E+00
     16.075  0.1052E-01  0.4742E+00
     16.173  0.6950E-02  0.4748E+00
     16.271  0.7818E-02  0.4756E+00
     16.369  0.1704E-01  0.4773E+00
     16.467  0.2832E-01  0.4801E+00
     16.565  0.2835E-01  0.4828E+00
     16.663  0.1960E-01  0.4847E+00
     16.761  0.1722E-01  0.4864E+00
     16.859  0.2019E-01  0.4884E+00
     16.957  0.1758E-01  0.4901E+00
     17.055  0.1444E-01  0.4915E+00
     17.153  0.1839E-01  0.4934E+00
     17.250  0.2156E-01  0.4955E+00
     17.348  0.1587E-01  0.4970E+00
     17.446  0.9464E-02  0.4979E+00
     17.544  0.1103E-01  0.4990E+00
     17.642  0.1553E-01  0.5005E+00
     17.740  0.1902E-01  0.5024E+00
     17.838  0.2285E-01  0.5046E+00
     17.936  0.2560E-01  0.5072E+00
     18.034  0.2573E-01  0.5097E+00
     18.132  0.2200E-01  0.5118E+00
     18.230  0.1774E-01  0.5136E+00
     18.328  0.2059E-01  0.5156E+00
     18.426  0.2646E-01  0.5182E+00
     18.524  0.2276E-01  0.5204E+00
     18.622  0.1212E-01  0.5216E+00
     18.720  0.8332E-02  0.5224E+00
     18.818  0.1423E-01  0.5238E+00
     18.916  0.2236E-01  0.5260E+00
     19.014  0.2635E-01  0.5286E+00
     19.112  0.2322E-01  0.5309E+00
     19.210  0.1477E-01  0.5323E+00
     19.308  0.7247E-02  0.5330E+00
     19.406  0.5092E-02  0.5335E+00
     19.504  0.7277E-02  0.5342E+00
     19.602  0.1228E-01  0.5354E+00
     19.700  0.1969E-01  0.5374E+00
     19.798  0.2469E-01  0.5398E+00
     19.896  0.2337E-01  0.5421E+00
     19.994  0.1872E-01  0.5439E+00
     20.092  0.1481E-01  0.5453E+00
     20.189  0.1335E-01  0.5467E+00
     20.287  0.1462E-01  0.5481E+00
     20.385  0.1565E-01  0.5496E+00
     20.483  0.1374E-01  0.5510E+00
     20.581  0.1159E-01  0.5521E+00
     20.679  0.1086E-01  0.5532E+00
     20.777  0.1157E-01  0.5543E+00
     20.875  0.1659E-01  0.5559E+00
     20.973  0.2335E-01  0.5582E+00
     21.071  0.2265E-01  0.5604E+00
     21.169  0.1506E-01  0.5619E+00
     21.267  0.9319E-02  0.5628E+00
     21.365  0.8072E-02  0.5636E+00
     21.463  0.1219E-01  0.5648E+00
     21.561  0.2114E-01  0.5669E+00
     21.659  0.2510E-01  0.5693E+00
     21.757  0.1935E-01  0.5712E+00
     21.855  0.1275E-01  0.5725E+00
     21.953  0.1132E-01  0.5736E+00
     22.051  0.1233E-01  0.5748E+00
     22.149  0.1236E-01  0.5760E+00
     22.247  0.1089E-01  0.5771E+00
     22.345  0.9629E-02  0.5780E+00
     22.443  0.1043E-01  0.5790E+00
     22.541  0.1072E-01  0.5801E+00
     22.639  0.7352E-02  0.5808E+00
     22.737  0.4054E-02  0.5812E+00
     22.835  0.7842E-02  0.5820E+00
     22.933  0.1673E-01  0.5836E+00
     23.031  0.2174E-01  0.5857E+00
     23.128  0.2082E-01  0.5878E+00
     23.226  0.1567E-01  0.5893E+00
     23.324  0.9345E-02  0.5902E+00
     23.422  0.8080E-02  0.5910E+00
     23.520  0.1094E-01  0.5921E+00
     23.618  0.1162E-01  0.5932E+00
     23.716  0.8015E-02  0.5940E+00
     23.814  0.2872E-02  0.5943E+00
     23.912  0.4277E-03  0.5943E+00
     24.010  0.1411E-02  0.5945E+00
     24.108  0.2538E-02  0.5947E+00
     24.206  0.2392E-02  0.5950E+00
     24.304  0.4337E-02  0.5954E+00
     24.402  0.8866E-02  0.5963E+00
     24.500  0.1025E-01  0.5973E+00
     24.598  0.7040E-02  0.5980E+00
     24.696  0.4041E-02  0.5984E+00
     24.794  0.3148E-02  0.5987E+00
     24.892  0.3246E-02  0.5990E+00
     24.990  0.3104E-02  0.5993E+00
     25.088  0.1831E-02  0.5995E+00
     25.186  0.7077E-03  0.5995E+00
     25.284  0.9293E-03  0.5996E+00
     25.382  0.1548E-02  0.5998E+00
     25.480  0.1483E-02  0.5999E+00
     25.578  0.7906E-03  0.6000E+00
     25.676  0.1528E-03  0.6000E+00
     25.774 -0.6249E-04  0.6000E+00
     25.872 -0.4415E-04  0.6000E+00
     25.970 -0.1098E-04  0.6000E+00
     26.067 -0.1427E-05  0.6000E+00
     26.165 -0.1055E-06  0.6000E+00
     26.263 -0.4598E-08  0.6000E+00
     26.361 -0.1200E-09  0.6000E+00
     26.459 -0.1895E-11  0.6000E+00
     26.557 -0.1821E-13  0.6000E+00
     26.655 -0.1068E-15  0.6000E+00
     26.753 -0.5902E-18  0.6000E+00
     26.851  0.0000E+00  0.6000E+00
     26.949  0.0000E+00  0.6000E+00
     27.047  0.0000E+00  0.6000E+00
     27.145  0.0000E+00  0.6000E+00
     27.243  0.0000E+00  0.6000E+00
     27.341  0.0000E+00  0.6000E+00
     27.439  0.0000E+00  0.6000E+00
