    1    1   30    1
  0.1924022E+02  0.3007749E-09  0.3007749E-09  0.3007749E-09  0.5000000E-15
  1.000000000000000E-004
  CAR 
 unknown system                          
     11     60      9
 
  0.6250000E-01  0.6250000E-01  0.6250000E-01  0.3906250E-02
    1        0.048995
    2        2.440878
    3        2.490730
    4        2.490730
    5        3.286289
    6        3.286289
    7       22.538643
    8       24.430919
    9       25.439019
 
  0.1875000E+00  0.6250000E-01  0.6250000E-01  0.1171875E-01
    1        0.600242
    2        2.337816
    3        2.608702
    4        2.632451
    5        3.183397
    6        3.360127
    7       21.029258
    8       22.588878
    9       24.697136
 
  0.3125000E+00  0.6250000E-01  0.6250000E-01  0.1171875E-01
    1        1.321964
    2        2.566272
    3        2.654792
    4        2.836123
    5        3.326465
    6        3.756647
    7       16.419909
    8       22.018350
    9       24.064819
 
  0.4375000E+00  0.6250000E-01  0.6250000E-01  0.1171875E-01
    1        1.285466
    2        2.473374
    3        2.532098
    4        3.660556
    5        3.730815
    6        5.425854
    7       12.082085
    8       21.599248
    9       22.943893
 
 -0.4375000E+00  0.6250000E-01  0.6250000E-01  0.1171875E-01
    1        1.230723
    2        2.416096
    3        2.498396
    4        3.754083
    5        3.943964
    6        6.930583
    7       10.007387
    8       21.637183
    9       22.901326
 
 -0.3125000E+00  0.6250000E-01  0.6250000E-01  0.1171875E-01
    1        1.319785
    2        2.501642
    3        2.589234
    4        3.341168
    5        3.791744
    6        4.616397
    7       13.443503
    8       22.170615
    9       22.977731
 
 -0.1875000E+00  0.6250000E-01  0.6250000E-01  0.1171875E-01
    1        1.172398
    2        2.431658
    3        2.673980
    4        2.681146
    5        3.336269
    6        3.470426
    7       17.969582
    8       22.895696
    9       23.629353
 
 -0.6250000E-01  0.6250000E-01  0.6250000E-01  0.1171875E-01
    1        0.335810
    2        2.354309
    3        2.577345
    4        2.578689
    5        3.197339
    6        3.336760
    7       22.216946
    8       23.415928
    9       24.471027
 
  0.1875000E+00  0.1875000E+00  0.6250000E-01  0.1171875E-01
    1        0.861644
    2        2.182023
    3        2.737575
    4        2.749928
    5        3.106452
    6        3.431137
    7       21.283538
    8       22.887188
    9       22.959407
 
  0.3125000E+00  0.1875000E+00  0.6250000E-01  0.2343750E-01
    1        1.571175
    2        2.061983
    3        2.648021
    4        2.960955
    5        3.380538
    6        3.850018
    7       18.388450
    8       20.303180
    9       23.120816
 
  0.4375000E+00  0.1875000E+00  0.6250000E-01  0.2343750E-01
    1        1.588239
    2        2.367988
    3        2.659910
    4        2.913028
    5        3.803031
    6        5.537328
    7       13.865984
    8       19.887802
    9       21.068582
 
 -0.4375000E+00  0.1875000E+00  0.6250000E-01  0.2343750E-01
    1        1.521078
    2        2.247638
    3        2.762298
    4        3.138972
    5        3.913292
    6        8.094215
    7       10.235047
    8       19.500148
    9       20.326461
 
 -0.3125000E+00  0.1875000E+00  0.6250000E-01  0.2343750E-01
    1        1.607832
    2        2.314740
    3        2.760319
    4        3.015178
    5        3.689249
    6        6.424426
    7       12.525318
    8       18.759220
    9       21.611463
 
 -0.1875000E+00  0.1875000E+00  0.6250000E-01  0.2343750E-01
    1        1.745712
    2        2.229147
    3        2.566847
    4        2.943966
    5        3.238485
    6        4.436420
    7       16.870559
    8       18.899277
    9       23.476150
 
 -0.6250000E-01  0.1875000E+00  0.6250000E-01  0.2343750E-01
    1        1.074204
    2        2.225041
    3        2.696187
    4        2.747083
    5        3.153554
    6        3.520838
    7       19.682384
    8       21.508161
    9       24.381290
 
  0.3125000E+00  0.3125000E+00  0.6250000E-01  0.1171875E-01
    1        1.617147
    2        1.739882
    3        3.149297
    4        3.273428
    5        3.697987
    6        4.069956
    7       18.765383
    8       19.799745
    9       20.434828
 
  0.4375000E+00  0.3125000E+00  0.6250000E-01  0.2343750E-01
    1        1.570656
    2        1.698093
    3        3.074462
    4        3.514163
    5        3.836979
    6        5.915949
    7       16.143210
    8       17.809824
    9       18.125130
 
 -0.4375000E+00  0.3125000E+00  0.6250000E-01  0.2343750E-01
    1        1.595474
    2        1.964526
    3        2.856493
    4        3.312571
    5        3.955301
    6        8.743235
    7       12.180550
    8       15.945286
    9       18.346831
 
 -0.3125000E+00  0.3125000E+00  0.6250000E-01  0.2343750E-01
    1        1.835838
    2        2.240505
    3        2.541759
    4        3.172856
    5        3.703681
    6        8.856769
    7       12.335478
    8       14.726626
    9       19.696480
 
 -0.1875000E+00  0.3125000E+00  0.6250000E-01  0.2343750E-01
    1        1.949734
    2        2.241848
    3        2.510480
    4        3.069653
    5        3.436953
    6        6.311056
    7       14.405667
    8       16.516487
    9       21.560641
 
 -0.6250000E-01  0.3125000E+00  0.6250000E-01  0.2343750E-01
    1        1.474591
    2        2.509552
    3        2.691599
    4        2.845081
    5        3.563042
    6        4.416602
    7       15.049548
    8       20.937046
    9       23.127850
 
  0.4375000E+00  0.4375000E+00  0.6250000E-01  0.1171875E-01
    1        1.305864
    2        1.378081
    3        3.767956
    4        3.816480
    5        3.977819
    6        6.965610
    7       15.061522
    8       16.831321
    9       17.595767
 
 -0.4375000E+00  0.4375000E+00  0.6250000E-01  0.2343750E-01
    1        1.323915
    2        1.437074
    3        3.588102
    4        3.762000
    5        4.068585
    6        9.076564
    7       13.153741
    8       15.136116
    9       16.804553
 
 -0.3125000E+00  0.4375000E+00  0.6250000E-01  0.2343750E-01
    1        1.550465
    2        1.880531
    3        2.971621
    4        3.444298
    5        3.934839
    6       10.518958
    7       11.794081
    8       13.763196
    9       18.007157
 
 -0.1875000E+00  0.4375000E+00  0.6250000E-01  0.2343750E-01
    1        1.721364
    2        2.161358
    3        2.834180
    4        2.976907
    5        3.831645
    6        8.950897
    7       10.577616
    8       17.052570
    9       19.906081
 
 -0.6250000E-01  0.4375000E+00  0.6250000E-01  0.2343750E-01
    1        1.359515
    2        2.373375
    3        2.602583
    4        3.432930
    5        3.882758
    6        6.658456
    7       10.984796
    8       20.897532
    9       21.807845
 
 -0.4375000E+00 -0.4375000E+00  0.6250000E-01  0.1171875E-01
    1        1.200289
    2        1.295417
    3        3.867206
    4        3.984230
    5        4.077765
    6        8.464773
    7       13.084672
    8       16.364750
    9       17.106007
 
 -0.3125000E+00 -0.4375000E+00  0.6250000E-01  0.2343750E-01
    1        1.421251
    2        1.523355
    3        3.371866
    4        3.719278
    5        3.969201
    6        7.520732
    7       14.978061
    8       15.748701
    9       17.236142
 
 -0.1875000E+00 -0.4375000E+00  0.6250000E-01  0.2343750E-01
    1        1.626537
    2        2.142553
    3        2.718177
    4        3.110662
    5        3.926889
    6        7.011278
    7       12.892829
    8       18.469858
    9       19.005907
 
 -0.3125000E+00 -0.3125000E+00  0.6250000E-01  0.1171875E-01
    1        1.477966
    2        1.536043
    3        3.520083
    4        3.555211
    5        3.841004
    6        5.360329
    7       17.478760
    8       17.844083
    9       18.522195
 
 -0.1875000E+00 -0.3125000E+00  0.6250000E-01  0.2343750E-01
    1        1.704737
    2        1.902216
    3        2.764774
    4        3.230579
    5        3.655711
    6        4.627592
    7       17.196042
    8       19.081788
    9       20.604675
 
 -0.1875000E+00 -0.1875000E+00  0.6250000E-01  0.1171875E-01
    1        1.431986
    2        1.964100
    3        2.854843
    4        2.990221
    5        3.326713
    6        3.556655
    7       20.036879
    8       21.324511
    9       22.489607
 
  0.1875000E+00  0.1875000E+00  0.1875000E+00  0.3906250E-02
    1        0.816100
    2        2.420034
    3        2.622697
    4        2.622697
    5        3.293458
    6        3.293458
    7       19.448348
    8       23.241937
    9       25.287559
 
  0.3125000E+00  0.1875000E+00  0.1875000E+00  0.1171875E-01
    1        1.423838
    2        2.250298
    3        2.698288
    4        2.797534
    5        3.088945
    6        3.855273
    7       18.199040
    8       20.157719
    9       24.933590
 
  0.4375000E+00  0.1875000E+00  0.1875000E+00  0.1171875E-01
    1        1.865195
    2        2.287877
    3        2.666903
    4        2.901950
    5        3.227531
    6        5.231436
    7       15.540911
    8       17.615262
    9       23.632232
 
 -0.4375000E+00  0.1875000E+00  0.1875000E+00  0.1171875E-01
    1        1.648090
    2        2.258207
    3        2.819045
    4        3.021143
    5        3.712046
    6        7.570241
    7       11.416061
    8       17.789289
    9       22.165256
 
 -0.3125000E+00  0.1875000E+00  0.1875000E+00  0.1171875E-01
    1        1.549611
    2        2.241005
    3        2.866591
    4        2.932601
    5        3.967649
    6        7.520777
    7       11.333968
    8       18.886849
    9       20.723834
 
 -0.1875000E+00  0.1875000E+00  0.1875000E+00  0.1171875E-01
    1        1.608445
    2        2.181326
    3        2.687058
    4        2.985686
    5        3.842641
    6        4.913918
    7       15.433267
    8       20.497366
    9       20.734253
 
  0.3125000E+00  0.3125000E+00  0.1875000E+00  0.1171875E-01
    1        1.496720
    2        2.381959
    3        2.589102
    4        2.802668
    5        3.666896
    6        3.880922
    7       16.626234
    8       21.969631
    9       22.389382
 
  0.4375000E+00  0.3125000E+00  0.1875000E+00  0.2343750E-01
    1        1.842949
    2        2.195308
    3        2.423070
    4        3.183917
    5        3.515698
    6        5.386480
    7       15.709498
    8       17.763536
    9       20.968427
 
 -0.4375000E+00  0.3125000E+00  0.1875000E+00  0.2343750E-01
    1        2.012793
    2        2.090523
    3        2.394204
    4        3.254258
    5        3.689229
    6        7.709526
    7       13.472534
    8       15.644112
    9       18.960582
 
 -0.3125000E+00  0.3125000E+00  0.1875000E+00  0.2343750E-01
    1        1.826949
    2        2.053220
    3        2.615122
    4        3.186349
    5        3.902576
    6        9.656443
    7       10.932539
    8       16.487401
    9       17.557497
 
 -0.1875000E+00  0.3125000E+00  0.1875000E+00  0.2343750E-01
    1        1.761155
    2        1.959801
    3        2.615118
    4        3.424103
    5        3.742850
    6        6.733023
    7       14.738723
    8       16.788021
    9       18.361905
 
  0.4375000E+00  0.4375000E+00  0.1875000E+00  0.1171875E-01
    1        1.551680
    2        1.918240
    3        2.964842
    4        3.211282
    5        3.963647
    6        6.316963
    7       14.424288
    8       18.108966
    9       19.308810
 
 -0.4375000E+00  0.4375000E+00  0.1875000E+00  0.2343750E-01
    1        1.639160
    2        1.774763
    3        2.860225
    4        3.546543
    5        3.934517
    6        8.379077
    7       13.988973
    8       15.580140
    9       16.402174
 
 -0.3125000E+00  0.4375000E+00  0.1875000E+00  0.2343750E-01
    1        1.765632
    2        2.043275
    3        2.507299
    4        3.348537
    5        4.064657
    6       11.206801
    7       12.389499
    8       13.846359
    9       15.134058
 
 -0.1875000E+00  0.4375000E+00  0.1875000E+00  0.2343750E-01
    1        1.881412
    2        2.049601
    3        2.433375
    4        3.341335
    5        3.918634
    6        9.392183
    7       12.780488
    8       14.972756
    9       16.525441
 
 -0.4375000E+00 -0.4375000E+00  0.1875000E+00  0.1171875E-01
    1        1.382120
    2        1.618585
    3        3.395349
    4        3.617477
    5        3.987125
    6        9.616603
    7       12.973509
    8       13.786887
    9       18.040130
 
 -0.3125000E+00 -0.4375000E+00  0.1875000E+00  0.2343750E-01
    1        1.545170
    2        1.696077
    3        3.046343
    4        3.544357
    5        4.065582
    6       10.058929
    7       13.187969
    8       14.006405
    9       15.915274
 
 -0.3125000E+00 -0.3125000E+00  0.1875000E+00  0.1171875E-01
    1        1.452901
    2        1.718507
    3        3.233344
    4        3.443283
    5        4.008115
    6        7.980861
    7       13.647967
    8       15.597215
    9       18.472641
 
  0.3125000E+00  0.3125000E+00  0.3125000E+00  0.3906250E-02
    1        1.278819
    2        2.577864
    3        2.577864
    4        3.559652
    5        3.578032
    6        3.578032
    7       14.827974
    8       22.586172
    9       24.515723
 
  0.4375000E+00  0.3125000E+00  0.3125000E+00  0.1171875E-01
    1        1.514650
    2        2.439070
    3        2.686786
    4        3.115163
    5        3.491769
    6        5.255893
    7       13.681071
    8       19.763460
    9       23.195605
 
 -0.4375000E+00  0.3125000E+00  0.3125000E+00  0.1171875E-01
    1        1.897660
    2        2.279732
    3        2.618064
    4        3.027269
    5        3.515890
    6        7.452712
    7       13.282655
    8       15.485472
    9       21.997002
 
 -0.3125000E+00  0.3125000E+00  0.3125000E+00  0.1171875E-01
    1        1.645666
    2        2.120806
    3        2.780879
    4        3.287204
    5        3.788808
    6       10.212225
    7       11.329606
    8       14.103268
    9       19.740165
 
  0.4375000E+00  0.4375000E+00  0.3125000E+00  0.1171875E-01
    1        1.424740
    2        2.381176
    3        2.689826
    4        3.110268
    5        3.930201
    6        5.941368
    7       12.272784
    8       21.216492
    9       21.700573
 
 -0.4375000E+00  0.4375000E+00  0.3125000E+00  0.2343750E-01
    1        1.735493
    2        2.152028
    3        2.740816
    4        3.027436
    5        3.840869
    6        7.909963
    7       11.594778
    8       17.945807
    9       19.141320
 
 -0.3125000E+00  0.4375000E+00  0.3125000E+00  0.2343750E-01
    1        1.799066
    2        2.107002
    3        2.520396
    4        3.294654
    5        3.917097
    6       10.526225
    7       11.611473
    8       14.233021
    9       17.247285
 
 -0.4375000E+00 -0.4375000E+00  0.3125000E+00  0.1171875E-01
    1        1.631536
    2        2.144208
    3        2.826179
    4        3.088791
    5        3.904172
    6        9.305603
    7       10.684161
    8       16.382350
    9       20.068104
 
  0.4375000E+00  0.4375000E+00  0.4375000E+00  0.3906250E-02
    1        1.191192
    2        2.466545
    3        2.466546
    4        3.891681
    5        3.891681
    6        6.007524
    7       10.812115
    8       21.899361
    9       23.627832
 
 -0.4375000E+00  0.4375000E+00  0.4375000E+00  0.1171875E-01
    1        1.392540
    2        2.334084
    3        2.623037
    4        3.427279
    5        3.877032
    6        7.572699
    7       10.121992
    8       20.100310
    9       22.411988
