 vasp.5.3.5 31Mar14 (build Jan 09 2015 16:57:47) complex                        
  
 executed on             LinuxIFC date 2015.03.24  14:26:01
 serial version


--------------------------------------------------------------------------------------------------------


 INCAR:
 POTCAR:    PAW_PBE Ag 02Apr2005                  
 POTCAR:    PAW_PBE Ag 02Apr2005                  
   VRHFIN =Ag : s1 d10                                                          
   LEXCH  = PE                                                                  
   EATOM  =  1037.2675 eV,   76.2370 Ry                                         
                                                                                
   TITEL  = PAW_PBE Ag 02Apr2005                                                
   LULTRA =        F    use ultrasoft PP ?                                      
   IUNSCR =        1    unscreen: 0-lin 1-nonlin 2-no                           
   RPACOR =    2.000    partial core radius                                     
   POMASS =  107.868; ZVAL   =   11.000    mass and valenz                      
   RCORE  =    2.500    outmost cutoff radius                                   
   RWIGS  =    2.840; RWIGS  =    1.503    wigner-seitz radius (au A)           
   ENMAX  =  249.844; ENMIN  =  187.383 eV                                      
   ICORE  =        3    local potential                                         
   LCOR   =        T    correct aug charges                                     
   LPAW   =        T    paw PP                                                  
   EAUG   =  412.496                                                            
   DEXC   =    0.000                                                            
   RMAX   =    2.560    core radius for proj-oper                               
   RAUG   =    1.300    factor for augmentation sphere                          
   RDEP   =    2.576    radius for radial grids                                 
   RDEPT  =    2.072    core radius for aug-charge                              
                                                                                
   Atomic configuration                                                         
   12 entries                                                                   
     n  l   j            E        occ.                                          
     1  0  0.50    -25324.9161   2.0000                                         
     2  0  0.50     -3728.5341   2.0000                                         
     2  1  1.50     -3344.0404   6.0000                                         
     3  0  0.50      -683.5581   2.0000                                         
     3  1  1.50      -557.3225   6.0000                                         
     3  2  2.50      -358.3853  10.0000                                         
     4  0  0.50       -95.0341   2.0000                                         
     4  1  1.50       -58.5511   6.0000                                         
     4  2  2.50        -7.4440  10.0000                                         
     5  0  0.50        -4.4045   1.0000                                         
     5  1  0.50        -1.3606   0.0000                                         
     4  3  2.50        -1.3606   0.0000                                         
   Description                                                                  
     l       E           TYP  RCUT    TYP  RCUT                                 
     2     -7.4439781     23  2.400                                             
     2     -8.8045607     23  2.400                                             
     0     -4.4044681     23  2.400                                             
     0      1.9520038     23  2.400                                             
     1     -1.3605826     23  2.500                                             
     1     27.2116520     23  2.500                                             
     3     -4.0817478     23  2.400                                             
  local pseudopotential read in
  partial core-charges read in
  partial kinetic energy density read in
  atomic valenz-charges read in
  non local Contribution for L=           2  read in
    real space projection operators read in
  non local Contribution for L=           2  read in
    real space projection operators read in
  non local Contribution for L=           0  read in
    real space projection operators read in
  non local Contribution for L=           0  read in
    real space projection operators read in
  non local Contribution for L=           1  read in
    real space projection operators read in
  non local Contribution for L=           1  read in
    real space projection operators read in
    PAW grid and wavefunctions read in
 
   number of l-projection  operators is LMAX  =           6
   number of lm-projection operators is LMMAX =          18
 
  PAW_PBE Ag 02Apr2005                  :
 energy of atom  1       EATOM=-1037.2675
 kinetic energy error for atom=    0.0272 (will be added to EATOM!!)
 
 
 POSCAR: Ag                                      
  positions in cartesian coordinates
  No initial velocities read in
 exchange correlation table for  LEXCH =        8
   RHO(1)=    0.500       N(1)  =     2000
   RHO(2)=  100.500       N(2)  =     4000

 VTST: version 3.1, (03/28/14)

 CHAIN: initializing optimizer
 
 OPT: Using VASP Conjugate-Gradient optimizer
 CHAIN: Read ICHAIN            0
 
 POSCAR: Ag                                      
  positions in cartesian coordinates
  No initial velocities read in
 


--------------------------------------------------------------------------------------------------------


 ion  position               nearest neighbor table
   1  0.000  0.000  0.000-
 
  LATTYP: Found a face centered cubic cell.
 ALAT       =     4.2536000000
  
  Lattice vectors:
  
 A1 = (   3.0077494045,   0.0000000000,   0.0000000000)
 A2 = (   1.5038747022,   2.6047873925,   0.0000000000)
 A3 = (   1.5038747022,   0.8682624642,   2.4558171050)


Analysis of symmetry for initial positions (statically):
=====================================================================
 Subroutine PRICEL returns:
 Original cell was already a primitive cell.
 

 Routine SETGRP: Setting up the symmetry group for a 
 face centered cubic supercell.


 Subroutine GETGRP returns: Found 48 space group operations
 (whereof 48 operations were pure point group operations)
 out of a pool of 48 trial point group operations.


The static configuration has the point symmetry O_h .


Analysis of symmetry for dynamics (positions and initial velocities):
=====================================================================
 Subroutine PRICEL returns:
 Original cell was already a primitive cell.
 

 Routine SETGRP: Setting up the symmetry group for a 
 face centered cubic supercell.


 Subroutine GETGRP returns: Found 48 space group operations
 (whereof 48 operations were pure point group operations)
 out of a pool of 48 trial point group operations.


The dynamic configuration has the point symmetry O_h .
 
 
 KPOINTS: KPOINTS created by Atomic Simulation Env

Automatic generation of k-mesh.
Space group operators:
 irot       det(A)        alpha          n_x          n_y          n_z        tau_x        tau_y        tau_z
    1     1.000000     0.000000     1.000000     0.000000     0.000000     0.000000     0.000000     0.000000
    2    -1.000000     0.000000     1.000000     0.000000     0.000000     0.000000     0.000000     0.000000
    3     1.000000   120.000000    -0.816497    -0.471405    -0.333333     0.000000     0.000000     0.000000
    4    -1.000000   120.000000    -0.816497    -0.471405    -0.333333     0.000000     0.000000     0.000000
    5     1.000000   120.000000     0.816497     0.471405     0.333333     0.000000     0.000000     0.000000
    6    -1.000000   120.000000     0.816497     0.471405     0.333333     0.000000     0.000000     0.000000
    7     1.000000    90.000000    -0.707107    -0.408248     0.577350     0.000000     0.000000     0.000000
    8    -1.000000    90.000000    -0.707107    -0.408248     0.577350     0.000000     0.000000     0.000000
    9     1.000000   180.000000     1.000000     0.000000     0.000000     0.000000     0.000000     0.000000
   10    -1.000000   180.000000     1.000000     0.000000     0.000000     0.000000     0.000000     0.000000
   11     1.000000    90.000000     0.707107    -0.408248     0.577350     0.000000     0.000000     0.000000
   12    -1.000000    90.000000     0.707107    -0.408248     0.577350     0.000000     0.000000     0.000000
   13     1.000000   180.000000     0.707107     0.408248    -0.577350     0.000000     0.000000     0.000000
   14    -1.000000   180.000000     0.707107     0.408248    -0.577350     0.000000     0.000000     0.000000
   15     1.000000   120.000000     0.816497    -0.471405    -0.333333     0.000000     0.000000     0.000000
   16    -1.000000   120.000000     0.816497    -0.471405    -0.333333     0.000000     0.000000     0.000000
   17     1.000000   120.000000     0.000000    -0.942809     0.333333     0.000000     0.000000     0.000000
   18    -1.000000   120.000000     0.000000    -0.942809     0.333333     0.000000     0.000000     0.000000
   19     1.000000    90.000000     0.707107     0.408248    -0.577350     0.000000     0.000000     0.000000
   20    -1.000000    90.000000     0.707107     0.408248    -0.577350     0.000000     0.000000     0.000000
   21     1.000000    90.000000     0.000000    -0.816497    -0.577350     0.000000     0.000000     0.000000
   22    -1.000000    90.000000     0.000000    -0.816497    -0.577350     0.000000     0.000000     0.000000
   23     1.000000   180.000000     0.500000     0.866025     0.000000     0.000000     0.000000     0.000000
   24    -1.000000   180.000000     0.500000     0.866025     0.000000     0.000000     0.000000     0.000000
   25     1.000000   120.000000     0.000000     0.942809    -0.333333     0.000000     0.000000     0.000000
   26    -1.000000   120.000000     0.000000     0.942809    -0.333333     0.000000     0.000000     0.000000
   27     1.000000   120.000000     0.000000     0.000000    -1.000000     0.000000     0.000000     0.000000
   28    -1.000000   120.000000     0.000000     0.000000    -1.000000     0.000000     0.000000     0.000000
   29     1.000000   180.000000     0.000000    -0.816497    -0.577350     0.000000     0.000000     0.000000
   30    -1.000000   180.000000     0.000000    -0.816497    -0.577350     0.000000     0.000000     0.000000
   31     1.000000    90.000000    -0.707107     0.408248    -0.577350     0.000000     0.000000     0.000000
   32    -1.000000    90.000000    -0.707107     0.408248    -0.577350     0.000000     0.000000     0.000000
   33     1.000000   179.999999     0.500000     0.288675     0.816497     0.000000     0.000000     0.000000
   34    -1.000000   179.999999     0.500000     0.288675     0.816497     0.000000     0.000000     0.000000
   35     1.000000    90.000000     0.000000     0.816497     0.577350     0.000000     0.000000     0.000000
   36    -1.000000    90.000000     0.000000     0.816497     0.577350     0.000000     0.000000     0.000000
   37     1.000000   120.000000    -0.816497     0.471405     0.333333     0.000000     0.000000     0.000000
   38    -1.000000   120.000000    -0.816497     0.471405     0.333333     0.000000     0.000000     0.000000
   39     1.000000   180.000000    -0.707107     0.408248    -0.577350     0.000000     0.000000     0.000000
   40    -1.000000   180.000000    -0.707107     0.408248    -0.577350     0.000000     0.000000     0.000000
   41     1.000000   120.000000     0.000000     0.000000     1.000000     0.000000     0.000000     0.000000
   42    -1.000000   120.000000     0.000000     0.000000     1.000000     0.000000     0.000000     0.000000
   43     1.000000   180.000000     0.000000    -0.577350     0.816497     0.000000     0.000000     0.000000
   44    -1.000000   180.000000     0.000000    -0.577350     0.816497     0.000000     0.000000     0.000000
   45     1.000000   180.000000    -0.500000     0.866025     0.000000     0.000000     0.000000     0.000000
   46    -1.000000   180.000000    -0.500000     0.866025     0.000000     0.000000     0.000000     0.000000
   47     1.000000   179.999999    -0.500000     0.288675     0.816497     0.000000     0.000000     0.000000
   48    -1.000000   179.999999    -0.500000     0.288675     0.816497     0.000000     0.000000     0.000000
 
 Subroutine IBZKPT returns following result:
 ===========================================
 
 Found     60 irreducible k-points:
 
 Following reciprocal coordinates:
            Coordinates               Weight
  0.062500  0.062500  0.062500     96.000000
  0.187500  0.062500  0.062500    288.000000
  0.312500  0.062500  0.062500    288.000000
  0.437500  0.062500  0.062500    288.000000
 -0.437500  0.062500  0.062500    288.000000
 -0.312500  0.062500  0.062500    288.000000
 -0.187500  0.062500  0.062500    288.000000
 -0.062500  0.062500  0.062500    288.000000
  0.187500  0.187500  0.062500    288.000000
  0.312500  0.187500  0.062500    576.000000
  0.437500  0.187500  0.062500    576.000000
 -0.437500  0.187500  0.062500    576.000000
 -0.312500  0.187500  0.062500    576.000000
 -0.187500  0.187500  0.062500    576.000000
 -0.062500  0.187500  0.062500    576.000000
  0.312500  0.312500  0.062500    288.000000
  0.437500  0.312500  0.062500    576.000000
 -0.437500  0.312500  0.062500    576.000000
 -0.312500  0.312500  0.062500    576.000000
 -0.187500  0.312500  0.062500    576.000000
 -0.062500  0.312500  0.062500    576.000000
  0.437500  0.437500  0.062500    288.000000
 -0.437500  0.437500  0.062500    576.000000
 -0.312500  0.437500  0.062500    576.000000
 -0.187500  0.437500  0.062500    576.000000
 -0.062500  0.437500  0.062500    576.000000
 -0.437500 -0.437500  0.062500    288.000000
 -0.312500 -0.437500  0.062500    576.000000
 -0.187500 -0.437500  0.062500    576.000000
 -0.312500 -0.312500  0.062500    288.000000
 -0.187500 -0.312500  0.062500    576.000000
 -0.187500 -0.187500  0.062500    288.000000
  0.187500  0.187500  0.187500     96.000000
  0.312500  0.187500  0.187500    288.000000
  0.437500  0.187500  0.187500    288.000000
 -0.437500  0.187500  0.187500    288.000000
 -0.312500  0.187500  0.187500    288.000000
 -0.187500  0.187500  0.187500    288.000000
  0.312500  0.312500  0.187500    288.000000
  0.437500  0.312500  0.187500    576.000000
 -0.437500  0.312500  0.187500    576.000000
 -0.312500  0.312500  0.187500    576.000000
 -0.187500  0.312500  0.187500    576.000000
  0.437500  0.437500  0.187500    288.000000
 -0.437500  0.437500  0.187500    576.000000
 -0.312500  0.437500  0.187500    576.000000
 -0.187500  0.437500  0.187500    576.000000
 -0.437500 -0.437500  0.187500    288.000000
 -0.312500 -0.437500  0.187500    576.000000
 -0.312500 -0.312500  0.187500    288.000000
  0.312500  0.312500  0.312500     96.000000
  0.437500  0.312500  0.312500    288.000000
 -0.437500  0.312500  0.312500    288.000000
 -0.312500  0.312500  0.312500    288.000000
  0.437500  0.437500  0.312500    288.000000
 -0.437500  0.437500  0.312500    576.000000
 -0.312500  0.437500  0.312500    576.000000
 -0.437500 -0.437500  0.312500    288.000000
  0.437500  0.437500  0.437500     96.000000
 -0.437500  0.437500  0.437500    288.000000
 
 Following cartesian coordinates:
            Coordinates               Weight
  0.020780  0.011997  0.008483     96.000000
  0.062339 -0.011997 -0.008483    288.000000
  0.103898 -0.035991 -0.025450    288.000000
  0.145458 -0.059986 -0.042416    288.000000
 -0.145458  0.107974  0.076349    288.000000
 -0.103898  0.083980  0.059383    288.000000
 -0.062339  0.059986  0.042416    288.000000
 -0.020780  0.035991  0.025450    288.000000
  0.062339  0.035991 -0.025450    288.000000
  0.103898  0.011997 -0.042416    576.000000
  0.145458 -0.011997 -0.059383    576.000000
 -0.145458  0.155963  0.059383    576.000000
 -0.103898  0.131969  0.042416    576.000000
 -0.062339  0.107974  0.025450    576.000000
 -0.020780  0.083980  0.008483    576.000000
  0.103898  0.059986 -0.059383    288.000000
  0.145458  0.035991 -0.076349    576.000000
 -0.145458  0.203951  0.042416    576.000000
 -0.103898  0.179957  0.025450    576.000000
 -0.062339  0.155963  0.008483    576.000000
 -0.020780  0.131969 -0.008483    576.000000
  0.145458  0.083980 -0.093316    288.000000
 -0.145458  0.251940  0.025450    576.000000
 -0.103898  0.227946  0.008483    576.000000
 -0.062339  0.203951 -0.008483    576.000000
 -0.020780  0.179957 -0.025450    576.000000
 -0.145458 -0.083980  0.144215    288.000000
 -0.103898 -0.107974  0.127249    576.000000
 -0.062339 -0.131969  0.110282    576.000000
 -0.103898 -0.059986  0.110282    288.000000
 -0.062339 -0.083980  0.093316    576.000000
 -0.062339 -0.035991  0.076349    288.000000
  0.062339  0.035991  0.025450     96.000000
  0.103898  0.011997  0.008483    288.000000
  0.145458 -0.011997 -0.008483    288.000000
 -0.145458  0.155963  0.110282    288.000000
 -0.103898  0.131969  0.093316    288.000000
 -0.062339  0.107974  0.076349    288.000000
  0.103898  0.059986 -0.008483    288.000000
  0.145458  0.035991 -0.025450    576.000000
 -0.145458  0.203951  0.093316    576.000000
 -0.103898  0.179957  0.076349    576.000000
 -0.062339  0.155963  0.059383    576.000000
  0.145458  0.083980 -0.042416    288.000000
 -0.145458  0.251940  0.076349    576.000000
 -0.103898  0.227946  0.059383    576.000000
 -0.062339  0.203951  0.042416    576.000000
 -0.145458 -0.083980  0.195115    288.000000
 -0.103898 -0.107974  0.178148    576.000000
 -0.103898 -0.059986  0.161182    288.000000
  0.103898  0.059986  0.042416     96.000000
  0.145458  0.035991  0.025450    288.000000
 -0.145458  0.203951  0.144215    288.000000
 -0.103898  0.179957  0.127249    288.000000
  0.145458  0.083980  0.008483    288.000000
 -0.145458  0.251940  0.127249    576.000000
 -0.103898  0.227946  0.110282    576.000000
 -0.145458 -0.083980  0.246015    288.000000
  0.145458  0.083980  0.059383     96.000000
 -0.145458  0.251940  0.178148    288.000000
 


--------------------------------------------------------------------------------------------------------




 Dimension of arrays:
   k-points           NKPTS =     60   k-points in BZ     NKDIM =     60   number of bands    NBANDS=      9
   number of dos      NEDOS =    301   number of ions     NIONS =      1
   non local maximal  LDIM  =      6   non local SUM 2l+1 LMDIM =     18
   total plane-waves  NPLWV =   2744
   max r-space proj   IRMAX =      1   max aug-charges    IRDMAX=   7211
   dimension x,y,z NGX =    14 NGY =   14 NGZ =   14
   dimension x,y,z NGXF=    28 NGYF=   28 NGZF=   28
   support grid    NGXF=    28 NGYF=   28 NGZF=   28
   ions per type =               1
 NGX,Y,Z   is equivalent  to a cutoff of   7.74,  7.74,  7.74 a.u.
 NGXF,Y,Z  is equivalent  to a cutoff of  15.48, 15.48, 15.48 a.u.


 I would recommend the setting:
   dimension x,y,z NGX =    14 NGY =   14 NGZ =   14
 SYSTEM =  unknown system                          
 POSCAR =  Ag                                      

 Startparameter for this run:
   NWRITE =      2    write-flag & timer
   PREC   = normal    normal or accurate (medium, high low for compatibility)
   ISTART =      0    job   : 0-new  1-cont  2-samecut
   ICHARG =      2    charge: 1-file 2-atom 10-const
   ISPIN  =      1    spin polarized calculation?
   LNONCOLLINEAR =      F non collinear calculations
   LSORBIT =      F    spin-orbit coupling
   INIWAV =      1    electr: 0-lowe 1-rand  2-diag
   LASPH  =      F    aspherical Exc in radial PAW
   METAGGA=      F    non-selfconsistent MetaGGA calc.

 Electronic Relaxation 1
   ENCUT  =  350.0 eV  25.72 Ry    5.07 a.u.   4.59  4.59  4.59*2*pi/ulx,y,z
   ENINI  =  350.0     initial cutoff
   ENAUG  =  412.5 eV  augmentation charge cutoff
   NELM   =     60;   NELMIN=  2; NELMDL= -5     # of ELM steps 
   EDIFF  = 0.1E-03   stopping-criterion for ELM
   LREAL  =      F    real-space projection
   NLSPLINE    = F    spline interpolate recip. space projectors
   LCOMPAT=      F    compatible to vasp.4.4
   GGA_COMPAT  = T    GGA compatible to vasp.4.4-vasp.4.6
   LMAXPAW     = -100 max onsite density
   LMAXMIX     =    2 max onsite mixed and CHGCAR
   VOSKOWN=      0    Vosko Wilk Nusair interpolation
   ROPT   =    0.00000
 Ionic relaxation
   EDIFFG = 0.1E-02   stopping-criterion for IOM
   NSW    =     30    number of steps for IOM
   NBLOCK =      1;   KBLOCK =     30    inner block; outer block 
   IBRION =      2    ionic relax: 0-MD 1-quasi-New 2-CG
   NFREE  =      1    steps in history (QN), initial steepest desc. (CG)
   ISIF   =      2    stress and relaxation
   IWAVPR =     11    prediction:  0-non 1-charg 2-wave 3-comb
   ISYM   =      2    0-nonsym 1-usesym 2-fastsym
   LCORR  =      T    Harris-Foulkes like correction to forces

   POTIM  = 0.5000    time-step for ionic-motion
   TEIN   =    0.0    initial temperature
   TEBEG  =    0.0;   TEEND  =   0.0 temperature during run
   SMASS  =  -3.00    Nose mass-parameter (am)
   estimated Nose-frequenzy (Omega)   =  0.10E-29 period in steps =****** mass=  -0.207E-27a.u.
   SCALEE = 1.0000    scale energy and forces
   NPACO  =    256;   APACO  = 16.0  distance and # of slots for P.C.
   PSTRESS=    0.0 pullay stress

  Mass of Ions in am
   POMASS = 107.87
  Ionic Valenz
   ZVAL   =  11.00
  Atomic Wigner-Seitz radii
   RWIGS  =  -1.00
  virtual crystal weights 
   VCA    =   1.00
   NELECT =      11.0000    total number of electrons
   NUPDOWN=      -1.0000    fix difference up-down

 DOS related values:
   EMIN   =  10.00;   EMAX   =-10.00  energy-range for DOS
   EFERMI =   0.00
   ISMEAR =     1;   SIGMA  =   0.20  broadening in eV -4-tet -1-fermi 0-gaus

 Electronic relaxation 2 (details)
   IALGO  =     38    algorithm
   LDIAG  =      T    sub-space diagonalisation (order eigenvalues)
   LSUBROT=      F    optimize rotation matrix (better conditioning)
   TURBO    =      0    0=normal 1=particle mesh
   IRESTART =      0    0=no restart 2=restart with 2 vectors
   NREBOOT  =      0    no. of reboots
   NMIN     =      0    reboot dimension
   EREF     =   0.00    reference energy to select bands
   IMIX   =      4    mixing-type and parameters
     AMIX     =   0.40;   BMIX     =  1.00
     AMIX_MAG =   1.60;   BMIX_MAG =  1.00
     AMIN     =   0.10
     WC   =   100.;   INIMIX=   1;  MIXPRE=   1;  MAXMIX= -45

 Intra band minimization:
   WEIMIN = 0.0010     energy-eigenvalue tresh-hold
   EBREAK =  0.28E-05  absolut break condition
   DEPER  =   0.30     relativ break condition  

   TIME   =   0.40     timestep for ELM

  volume/ion in A,a.u.               =      19.24       129.84
  Fermi-wavevector in a.u.,A,eV,Ry     =   1.358738  2.567643 25.118656  1.846169
  Thomas-Fermi vector in A             =   2.485546
 
 Write flags
   LWAVE  =      T    write WAVECAR
   LCHARG =      T    write CHGCAR
   LVTOT  =      F    write LOCPOT, total local potential
   LVHAR  =      F    write LOCPOT, Hartree potential only
   LELF   =      F    write electronic localiz. function (ELF)
   LORBIT =      0    0 simple, 1 ext, 2 COOP (PROOUT)


 Dipole corrections
   LMONO  =      F    monopole corrections only (constant potential shift)
   LDIPOL =      F    correct potential (dipole corrections)
   IDIPOL =      0    1-x, 2-y, 3-z, 4-all directions 
   EPSILON=  1.0000000 bulk dielectric constant

 Exchange correlation treatment:
   GGA     =    --    GGA type
   LEXCH   =     8    internal setting for exchange type
   VOSKOWN=      0    Vosko Wilk Nusair interpolation
   LHFCALC =     F    Hartree Fock is set to
   LHFONE  =     F    Hartree Fock one center treatment
   AEXX    =    0.0000 exact exchange contribution

 Linear response parameters
   LEPSILON=     F    determine dielectric tensor
   LRPA    =     F    only Hartree local field effects (RPA)
   LNABLA  =     F    use nabla operator in PAW spheres
   LVEL    =     F    velocity operator in full k-point grid
   LINTERFAST=   F  fast interpolation
   KINTER  =     0    interpolate to denser k-point grid
   CSHIFT  =0.1000    complex shift for real part using Kramers Kronig
   OMEGAMAX=  -1.0    maximum frequency
   DEG_THRESHOLD= 0.2000000E-02 threshold for treating states as degnerate
   RTIME   =    0.100 relaxation time in fs

 Orbital magnetization related:
   ORBITALMAG=     F  switch on orbital magnetization
   LCHIMAG   =     F  perturbation theory with respect to B field
   DQ        =  0.001000  dq finite difference perturbation B field



--------------------------------------------------------------------------------------------------------


 conjugate gradient relaxation of ions
 charge density and potential will be updated during run
 non-spin polarized calculation
 Variant of blocked Davidson
 Davidson routine will perform the subspace rotation
 perform sub-space diagonalisation
    after iterative eigenvector-optimisation
 modified Broyden-mixing scheme, WC =      100.0
 initial mixing is a Kerker type mixing with AMIX =  0.4000 and BMIX =      1.0000
 Hartree-type preconditioning will be used
 using additional bands            3
 reciprocal scheme for non local part
 use partial core corrections
 calculate Harris-corrections to forces 
   (improved forces if not selfconsistent)
 use gradient corrections 
 use of overlap-Matrix (Vanderbilt PP)
 Methfessel and Paxton  Order N= 1 SIGMA  =   0.20


--------------------------------------------------------------------------------------------------------


  energy-cutoff  :      350.00
  volume of cell :       19.24
      direct lattice vectors                 reciprocal lattice vectors
     3.007749404  0.000000000  0.000000000     0.332474507 -0.191954246 -0.135732149
     1.503874702  2.604787392  0.000000000     0.000000000  0.383908492 -0.135732149
     1.503874702  0.868262464  2.455817105     0.000000000  0.000000000  0.407196447

  length of vectors
     3.007749404  3.007749404  3.007749404     0.407196447  0.407196447  0.407196447


 
 k-points in units of 2pi/SCALE and weight: KPOINTS created by Atomic Simulation Env
   0.02077966  0.01199714  0.00848326       0.004
   0.06233897 -0.01199714 -0.00848326       0.012
   0.10389828 -0.03599142 -0.02544978       0.012
   0.14545760 -0.05998570 -0.04241630       0.012
  -0.14545760  0.10797426  0.07634933       0.012
  -0.10389828  0.08397998  0.05938282       0.012
  -0.06233897  0.05998570  0.04241630       0.012
  -0.02077966  0.03599142  0.02544978       0.012
   0.06233897  0.03599142 -0.02544978       0.012
   0.10389828  0.01199714 -0.04241630       0.023
   0.14545760 -0.01199714 -0.05938282       0.023
  -0.14545760  0.15596282  0.05938282       0.023
  -0.10389828  0.13196854  0.04241630       0.023
  -0.06233897  0.10797426  0.02544978       0.023
  -0.02077966  0.08397998  0.00848326       0.023
   0.10389828  0.05998570 -0.05938282       0.012
   0.14545760  0.03599142 -0.07634933       0.023
  -0.14545760  0.20395139  0.04241630       0.023
  -0.10389828  0.17995711  0.02544978       0.023
  -0.06233897  0.15596282  0.00848326       0.023
  -0.02077966  0.13196854 -0.00848326       0.023
   0.14545760  0.08397998 -0.09331585       0.012
  -0.14545760  0.25193995  0.02544978       0.023
  -0.10389828  0.22794567  0.00848326       0.023
  -0.06233897  0.20395139 -0.00848326       0.023
  -0.02077966  0.17995711 -0.02544978       0.023
  -0.14545760 -0.08397998  0.14421541       0.012
  -0.10389828 -0.10797426  0.12724889       0.023
  -0.06233897 -0.13196854  0.11028237       0.023
  -0.10389828 -0.05998570  0.11028237       0.012
  -0.06233897 -0.08397998  0.09331585       0.023
  -0.06233897 -0.03599142  0.07634933       0.012
   0.06233897  0.03599142  0.02544978       0.004
   0.10389828  0.01199714  0.00848326       0.012
   0.14545760 -0.01199714 -0.00848326       0.012
  -0.14545760  0.15596282  0.11028237       0.012
  -0.10389828  0.13196854  0.09331585       0.012
  -0.06233897  0.10797426  0.07634933       0.012
   0.10389828  0.05998570 -0.00848326       0.012
   0.14545760  0.03599142 -0.02544978       0.023
  -0.14545760  0.20395139  0.09331585       0.023
  -0.10389828  0.17995711  0.07634933       0.023
  -0.06233897  0.15596282  0.05938282       0.023
   0.14545760  0.08397998 -0.04241630       0.012
  -0.14545760  0.25193995  0.07634933       0.023
  -0.10389828  0.22794567  0.05938282       0.023
  -0.06233897  0.20395139  0.04241630       0.023
  -0.14545760 -0.08397998  0.19511496       0.012
  -0.10389828 -0.10797426  0.17814845       0.023
  -0.10389828 -0.05998570  0.16118193       0.012
   0.10389828  0.05998570  0.04241630       0.004
   0.14545760  0.03599142  0.02544978       0.012
  -0.14545760  0.20395139  0.14421541       0.012
  -0.10389828  0.17995711  0.12724889       0.012
   0.14545760  0.08397998  0.00848326       0.012
  -0.14545760  0.25193995  0.12724889       0.023
  -0.10389828  0.22794567  0.11028237       0.023
  -0.14545760 -0.08397998  0.24601452       0.012
   0.14545760  0.08397998  0.05938282       0.004
  -0.14545760  0.25193995  0.17814845       0.012
 
 k-points in reciprocal lattice and weights: KPOINTS created by Atomic Simulation Env
   0.06250000  0.06250000  0.06250000       0.004
   0.18750000  0.06250000  0.06250000       0.012
   0.31250000  0.06250000  0.06250000       0.012
   0.43750000  0.06250000  0.06250000       0.012
  -0.43750000  0.06250000  0.06250000       0.012
  -0.31250000  0.06250000  0.06250000       0.012
  -0.18750000  0.06250000  0.06250000       0.012
  -0.06250000  0.06250000  0.06250000       0.012
   0.18750000  0.18750000  0.06250000       0.012
   0.31250000  0.18750000  0.06250000       0.023
   0.43750000  0.18750000  0.06250000       0.023
  -0.43750000  0.18750000  0.06250000       0.023
  -0.31250000  0.18750000  0.06250000       0.023
  -0.18750000  0.18750000  0.06250000       0.023
  -0.06250000  0.18750000  0.06250000       0.023
   0.31250000  0.31250000  0.06250000       0.012
   0.43750000  0.31250000  0.06250000       0.023
  -0.43750000  0.31250000  0.06250000       0.023
  -0.31250000  0.31250000  0.06250000       0.023
  -0.18750000  0.31250000  0.06250000       0.023
  -0.06250000  0.31250000  0.06250000       0.023
   0.43750000  0.43750000  0.06250000       0.012
  -0.43750000  0.43750000  0.06250000       0.023
  -0.31250000  0.43750000  0.06250000       0.023
  -0.18750000  0.43750000  0.06250000       0.023
  -0.06250000  0.43750000  0.06250000       0.023
  -0.43750000 -0.43750000  0.06250000       0.012
  -0.31250000 -0.43750000  0.06250000       0.023
  -0.18750000 -0.43750000  0.06250000       0.023
  -0.31250000 -0.31250000  0.06250000       0.012
  -0.18750000 -0.31250000  0.06250000       0.023
  -0.18750000 -0.18750000  0.06250000       0.012
   0.18750000  0.18750000  0.18750000       0.004
   0.31250000  0.18750000  0.18750000       0.012
   0.43750000  0.18750000  0.18750000       0.012
  -0.43750000  0.18750000  0.18750000       0.012
  -0.31250000  0.18750000  0.18750000       0.012
  -0.18750000  0.18750000  0.18750000       0.012
   0.31250000  0.31250000  0.18750000       0.012
   0.43750000  0.31250000  0.18750000       0.023
  -0.43750000  0.31250000  0.18750000       0.023
  -0.31250000  0.31250000  0.18750000       0.023
  -0.18750000  0.31250000  0.18750000       0.023
   0.43750000  0.43750000  0.18750000       0.012
  -0.43750000  0.43750000  0.18750000       0.023
  -0.31250000  0.43750000  0.18750000       0.023
  -0.18750000  0.43750000  0.18750000       0.023
  -0.43750000 -0.43750000  0.18750000       0.012
  -0.31250000 -0.43750000  0.18750000       0.023
  -0.31250000 -0.31250000  0.18750000       0.012
   0.31250000  0.31250000  0.31250000       0.004
   0.43750000  0.31250000  0.31250000       0.012
  -0.43750000  0.31250000  0.31250000       0.012
  -0.31250000  0.31250000  0.31250000       0.012
   0.43750000  0.43750000  0.31250000       0.012
  -0.43750000  0.43750000  0.31250000       0.023
  -0.31250000  0.43750000  0.31250000       0.023
  -0.43750000 -0.43750000  0.31250000       0.012
   0.43750000  0.43750000  0.43750000       0.004
  -0.43750000  0.43750000  0.43750000       0.012
 
 position of ions in fractional coordinates (direct lattice) 
   0.00000000  0.00000000  0.00000000
 
 position of ions in cartesian coordinates  (Angst):
   0.00000000  0.00000000  0.00000000
 


--------------------------------------------------------------------------------------------------------


 k-point  1 :   0.0625 0.0625 0.0625  plane waves:     286
 k-point  2 :   0.1875 0.0625 0.0625  plane waves:     292
 k-point  3 :   0.3125 0.0625 0.0625  plane waves:     293
 k-point  4 :   0.4375 0.0625 0.0625  plane waves:     281
 k-point  5 :  -0.4375 0.0625 0.0625  plane waves:     281
 k-point  6 :  -0.3125 0.0625 0.0625  plane waves:     288
 k-point  7 :  -0.1875 0.0625 0.0625  plane waves:     294
 k-point  8 :  -0.0625 0.0625 0.0625  plane waves:     292
 k-point  9 :   0.1875 0.1875 0.0625  plane waves:     293
 k-point 10 :   0.3125 0.1875 0.0625  plane waves:     291
 k-point 11 :   0.4375 0.1875 0.0625  plane waves:     284
 k-point 12 :  -0.4375 0.1875 0.0625  plane waves:     285
 k-point 13 :  -0.3125 0.1875 0.0625  plane waves:     285
 k-point 14 :  -0.1875 0.1875 0.0625  plane waves:     291
 k-point 15 :  -0.0625 0.1875 0.0625  plane waves:     291
 k-point 16 :   0.3125 0.3125 0.0625  plane waves:     296
 k-point 17 :   0.4375 0.3125 0.0625  plane waves:     289
 k-point 18 :  -0.4375 0.3125 0.0625  plane waves:     286
 k-point 19 :  -0.3125 0.3125 0.0625  plane waves:     281
 k-point 20 :  -0.1875 0.3125 0.0625  plane waves:     284
 k-point 21 :  -0.0625 0.3125 0.0625  plane waves:     291
 k-point 22 :   0.4375 0.4375 0.0625  plane waves:     285
 k-point 23 :  -0.4375 0.4375 0.0625  plane waves:     283
 k-point 24 :  -0.3125 0.4375 0.0625  plane waves:     282
 k-point 25 :  -0.1875 0.4375 0.0625  plane waves:     284
 k-point 26 :  -0.0625 0.4375 0.0625  plane waves:     280
 k-point 27 :  -0.4375-0.4375 0.0625  plane waves:     291
 k-point 28 :  -0.3125-0.4375 0.0625  plane waves:     287
 k-point 29 :  -0.1875-0.4375 0.0625  plane waves:     285
 k-point 30 :  -0.3125-0.3125 0.0625  plane waves:     288
 k-point 31 :  -0.1875-0.3125 0.0625  plane waves:     289
 k-point 32 :  -0.1875-0.1875 0.0625  plane waves:     297
 k-point 33 :   0.1875 0.1875 0.1875  plane waves:     295
 k-point 34 :   0.3125 0.1875 0.1875  plane waves:     290
 k-point 35 :   0.4375 0.1875 0.1875  plane waves:     287
 k-point 36 :  -0.4375 0.1875 0.1875  plane waves:     286
 k-point 37 :  -0.3125 0.1875 0.1875  plane waves:     285
 k-point 38 :  -0.1875 0.1875 0.1875  plane waves:     289
 k-point 39 :   0.3125 0.3125 0.1875  plane waves:     294
 k-point 40 :   0.4375 0.3125 0.1875  plane waves:     287
 k-point 41 :  -0.4375 0.3125 0.1875  plane waves:     285
 k-point 42 :  -0.3125 0.3125 0.1875  plane waves:     283
 k-point 43 :  -0.1875 0.3125 0.1875  plane waves:     285
 k-point 44 :   0.4375 0.4375 0.1875  plane waves:     287
 k-point 45 :  -0.4375 0.4375 0.1875  plane waves:     286
 k-point 46 :  -0.3125 0.4375 0.1875  plane waves:     280
 k-point 47 :  -0.1875 0.4375 0.1875  plane waves:     279
 k-point 48 :  -0.4375-0.4375 0.1875  plane waves:     282
 k-point 49 :  -0.3125-0.4375 0.1875  plane waves:     284
 k-point 50 :  -0.3125-0.3125 0.1875  plane waves:     282
 k-point 51 :   0.3125 0.3125 0.3125  plane waves:     287
 k-point 52 :   0.4375 0.3125 0.3125  plane waves:     287
 k-point 53 :  -0.4375 0.3125 0.3125  plane waves:     283
 k-point 54 :  -0.3125 0.3125 0.3125  plane waves:     284
 k-point 55 :   0.4375 0.4375 0.3125  plane waves:     284
 k-point 56 :  -0.4375 0.4375 0.3125  plane waves:     285
 k-point 57 :  -0.3125 0.4375 0.3125  plane waves:     280
 k-point 58 :  -0.4375-0.4375 0.3125  plane waves:     282
 k-point 59 :   0.4375 0.4375 0.4375  plane waves:     284
 k-point 60 :  -0.4375 0.4375 0.4375  plane waves:     283

 maximum number of plane-waves:       297
 maximum index in each direction: 
   IXMAX=    5   IYMAX=    5   IZMAX=    4
   IXMIN=   -5   IYMIN=   -5   IZMIN=   -5

 WARNING: aliasing errors must be expected set NGX to  22 to avoid them
 WARNING: aliasing errors must be expected set NGY to  22 to avoid them
 WARNING: aliasing errors must be expected set NGZ to  20 to avoid them
 aliasing errors are usually negligible using standard VASP settings
 and one can safely disregard these warnings

 total amount of memory used by VASP on root node    36522. kBytes
========================================================================

   base      :      30000. kBytes
   nonl-proj :       2570. kBytes
   grid      :       1216. kBytes
   one-center:         15. kBytes
   wavefun   :       2721. kBytes
 
     INWAV:  cpu time    0.00: real time    0.00
 Broyden mixing: mesh for mixing (old mesh)
   NGX =  9   NGY =  9   NGZ =  9
  (NGX  = 28   NGY  = 28   NGZ  = 28)
  gives a total of    729 points

 initial charge density was supplied:
 charge density of overlapping atoms calculated
 number of electron      11.0000000 magnetization 
 keeping initial charge density in first step


--------------------------------------------------------------------------------------------------------


 Maximum index for augmentation-charges         6819 (set IRDMAX)


--------------------------------------------------------------------------------------------------------


 First call to EWALD:  gamma=   0.661
 Maximum number of real-space cells 3x 3x 3
 Maximum number of reciprocal cells 3x 3x 3

    FEWALD:  cpu time    0.00: real time    0.00


----------------------------------------- Iteration    1(   1)  ---------------------------------------


    POTLOK:  cpu time    0.02: real time    0.03
    SETDIJ:  cpu time    0.01: real time    0.01
     EDDAV:  cpu time    0.76: real time    0.76
       DOS:  cpu time    0.00: real time    0.00
    --------------------------------------------
      LOOP:  cpu time    0.79: real time    0.83

 eigenvalue-minimisations  :  1272
 total energy-change (2. order) : 0.2782451E+02  (-0.4552631E+03)
 number of electron      11.0000000 magnetization 
 augmentation part       11.0000000 magnetization 

 Free energy of the ion-electron system (eV)
  ---------------------------------------------------
  alpha Z        PSCENC =        44.20834230
  Ewald energy   TEWEN  =      -939.03347796
  -Hartree energ DENC   =      -221.36364911
  -exchange      EXHF   =         0.00000000
  -V(xc)+E(xc)   XCENC  =       -10.72140255
  PAW double counting   =      1003.46214933     -957.34927423
  entropy T*S    EENTRO =        -0.00132651
  eigenvalues    EBANDS =        71.38287042
  atomic energy  EATOM  =      1037.24027811
  ---------------------------------------------------
  free energy    TOTEN  =        27.82450978 eV

  energy without entropy =       27.82583629  energy(sigma->0) =       27.82495195


--------------------------------------------------------------------------------------------------------




----------------------------------------- Iteration    1(   2)  ---------------------------------------


     EDDAV:  cpu time    0.72: real time    0.72
       DOS:  cpu time    0.00: real time    0.00
    --------------------------------------------
      LOOP:  cpu time    0.72: real time    0.73

 eigenvalue-minimisations  :  1102
 total energy-change (2. order) :-0.3052248E+02  (-0.2869264E+02)
 number of electron      11.0000000 magnetization 
 augmentation part       11.0000000 magnetization 

 Free energy of the ion-electron system (eV)
  ---------------------------------------------------
  alpha Z        PSCENC =        44.20834230
  Ewald energy   TEWEN  =      -939.03347796
  -Hartree energ DENC   =      -221.36364911
  -exchange      EXHF   =         0.00000000
  -V(xc)+E(xc)   XCENC  =       -10.72140255
  PAW double counting   =      1003.46214933     -957.34927423
  entropy T*S    EENTRO =        -0.00023598
  eigenvalues    EBANDS =        40.85929571
  atomic energy  EATOM  =      1037.24027811
  ---------------------------------------------------
  free energy    TOTEN  =        -2.69797440 eV

  energy without entropy =       -2.69773842  energy(sigma->0) =       -2.69789574


--------------------------------------------------------------------------------------------------------




----------------------------------------- Iteration    1(   3)  ---------------------------------------


     EDDAV:  cpu time    1.15: real time    1.15
       DOS:  cpu time    0.00: real time    0.01
    --------------------------------------------
      LOOP:  cpu time    1.16: real time    1.23

 eigenvalue-minimisations  :  1331
 total energy-change (2. order) :-0.2087493E+00  (-0.2087162E+00)
 number of electron      11.0000000 magnetization 
 augmentation part       11.0000000 magnetization 

 Free energy of the ion-electron system (eV)
  ---------------------------------------------------
  alpha Z        PSCENC =        44.20834230
  Ewald energy   TEWEN  =      -939.03347796
  -Hartree energ DENC   =      -221.36364911
  -exchange      EXHF   =         0.00000000
  -V(xc)+E(xc)   XCENC  =       -10.72140255
  PAW double counting   =      1003.46214933     -957.34927423
  entropy T*S    EENTRO =        -0.00022237
  eigenvalues    EBANDS =        40.65053275
  atomic energy  EATOM  =      1037.24027811
  ---------------------------------------------------
  free energy    TOTEN  =        -2.90672374 eV

  energy without entropy =       -2.90650137  energy(sigma->0) =       -2.90664962


--------------------------------------------------------------------------------------------------------




----------------------------------------- Iteration    1(   4)  ---------------------------------------


     EDDAV:  cpu time    1.09: real time    1.09
       DOS:  cpu time    0.00: real time    0.01
    --------------------------------------------
      LOOP:  cpu time    1.09: real time    1.11

 eigenvalue-minimisations  :  1199
 total energy-change (2. order) :-0.3783395E-03  (-0.3783368E-03)
 number of electron      11.0000000 magnetization 
 augmentation part       11.0000000 magnetization 

 Free energy of the ion-electron system (eV)
  ---------------------------------------------------
  alpha Z        PSCENC =        44.20834230
  Ewald energy   TEWEN  =      -939.03347796
  -Hartree energ DENC   =      -221.36364911
  -exchange      EXHF   =         0.00000000
  -V(xc)+E(xc)   XCENC  =       -10.72140255
  PAW double counting   =      1003.46214933     -957.34927423
  entropy T*S    EENTRO =        -0.00022272
  eigenvalues    EBANDS =        40.65015477
  atomic energy  EATOM  =      1037.24027811
  ---------------------------------------------------
  free energy    TOTEN  =        -2.90710208 eV

  energy without entropy =       -2.90687936  energy(sigma->0) =       -2.90702784


--------------------------------------------------------------------------------------------------------




----------------------------------------- Iteration    1(   5)  ---------------------------------------


     EDDAV:  cpu time    0.92: real time    0.92
       DOS:  cpu time    0.00: real time    0.01
    CHARGE:  cpu time    0.06: real time    0.06
    MIXING:  cpu time    0.00: real time    0.00
    --------------------------------------------
      LOOP:  cpu time    1.00: real time    1.03

 eigenvalue-minimisations  :  1070
 total energy-change (2. order) :-0.2652763E-05  (-0.2652833E-05)
 number of electron      10.9999939 magnetization 
 augmentation part        5.0985503 magnetization 

 Broyden mixing:
  rms(total) = 0.38384E+00    rms(broyden)= 0.38381E+00
  rms(prec ) = 0.11314E+01
  weight for this iteration     100.00

 Free energy of the ion-electron system (eV)
  ---------------------------------------------------
  alpha Z        PSCENC =        44.20834230
  Ewald energy   TEWEN  =      -939.03347796
  -Hartree energ DENC   =      -221.36364911
  -exchange      EXHF   =         0.00000000
  -V(xc)+E(xc)   XCENC  =       -10.72140255
  PAW double counting   =      1003.46214933     -957.34927423
  entropy T*S    EENTRO =        -0.00022273
  eigenvalues    EBANDS =        40.65015212
  atomic energy  EATOM  =      1037.24027811
  ---------------------------------------------------
  free energy    TOTEN  =        -2.90710473 eV

  energy without entropy =       -2.90688200  energy(sigma->0) =       -2.90703049


--------------------------------------------------------------------------------------------------------




----------------------------------------- Iteration    1(   6)  ---------------------------------------


    POTLOK:  cpu time    0.03: real time    0.03
    SETDIJ:  cpu time    0.01: real time    0.01
     EDDAV:  cpu time    0.91: real time    0.91
       DOS:  cpu time    0.00: real time    0.01
    CHARGE:  cpu time    0.06: real time    0.06
    MIXING:  cpu time    0.00: real time    0.00
    --------------------------------------------
      LOOP:  cpu time    1.02: real time    1.03

 eigenvalue-minimisations  :  1100
 total energy-change (2. order) : 0.2076628E+00  (-0.1090359E+00)
 number of electron      10.9999937 magnetization 
 augmentation part        5.2622870 magnetization 

 Broyden mixing:
  rms(total) = 0.26792E+00    rms(broyden)= 0.26792E+00
  rms(prec ) = 0.30585E+00
  weight for this iteration     100.00

 eigenvalues of (default mixing * dielectric matrix)
  average eigenvalue GAMMA=   0.9566
  0.9566

 Free energy of the ion-electron system (eV)
  ---------------------------------------------------
  alpha Z        PSCENC =        44.20834230
  Ewald energy   TEWEN  =      -939.03347796
  -Hartree energ DENC   =      -211.95657686
  -exchange      EXHF   =         0.00000000
  -V(xc)+E(xc)   XCENC  =       -11.06419677
  PAW double counting   =      1029.69589962     -984.35275121
  entropy T*S    EENTRO =        -0.00021085
  eigenvalues    EBANDS =        32.56325169
  atomic energy  EATOM  =      1037.24027811
  ---------------------------------------------------
  free energy    TOTEN  =        -2.69944193 eV

  energy without entropy =       -2.69923109  energy(sigma->0) =       -2.69937165


--------------------------------------------------------------------------------------------------------




----------------------------------------- Iteration    1(   7)  ---------------------------------------


    POTLOK:  cpu time    0.03: real time    0.03
    SETDIJ:  cpu time    0.01: real time    0.01
     EDDAV:  cpu time    0.93: real time    0.93
       DOS:  cpu time    0.00: real time    0.01
    CHARGE:  cpu time    0.06: real time    0.06
    MIXING:  cpu time    0.00: real time    0.00
    --------------------------------------------
      LOOP:  cpu time    1.04: real time    1.15

 eigenvalue-minimisations  :  1219
 total energy-change (2. order) : 0.4300292E-02  (-0.3367805E-03)
 number of electron      10.9999937 magnetization 
 augmentation part        5.2691735 magnetization 

 Broyden mixing:
  rms(total) = 0.15519E+00    rms(broyden)= 0.15519E+00
  rms(prec ) = 0.17166E+00
  weight for this iteration     100.00

 eigenvalues of (default mixing * dielectric matrix)
  average eigenvalue GAMMA=   1.7892
  1.0334  2.5451

 Free energy of the ion-electron system (eV)
  ---------------------------------------------------
  alpha Z        PSCENC =        44.20834230
  Ewald energy   TEWEN  =      -939.03347796
  -Hartree energ DENC   =      -210.80783888
  -exchange      EXHF   =         0.00000000
  -V(xc)+E(xc)   XCENC  =       -11.11000106
  PAW double counting   =      1050.88095121    -1006.09133898
  entropy T*S    EENTRO =        -0.00014789
  eigenvalues    EBANDS =        32.01809152
  atomic energy  EATOM  =      1037.24027811
  ---------------------------------------------------
  free energy    TOTEN  =        -2.69514164 eV

  energy without entropy =       -2.69499375  energy(sigma->0) =       -2.69509235


--------------------------------------------------------------------------------------------------------




----------------------------------------- Iteration    1(   8)  ---------------------------------------


    POTLOK:  cpu time    0.03: real time    0.03
    SETDIJ:  cpu time    0.01: real time    0.01
     EDDAV:  cpu time    0.73: real time    0.73
       DOS:  cpu time    0.00: real time    0.01
    CHARGE:  cpu time    0.06: real time    0.06
    MIXING:  cpu time    0.00: real time    0.00
    --------------------------------------------
      LOOP:  cpu time    0.84: real time    0.90

 eigenvalue-minimisations  :  1122
 total energy-change (2. order) : 0.1938223E-02  (-0.6728682E-04)
 number of electron      10.9999937 magnetization 
 augmentation part        5.2712773 magnetization 

 Broyden mixing:
  rms(total) = 0.41670E-02    rms(broyden)= 0.41660E-02
  rms(prec ) = 0.59354E-02
  weight for this iteration     100.00

 eigenvalues of (default mixing * dielectric matrix)
  average eigenvalue GAMMA=   1.4992
  2.5075  1.0533  0.9368

 Free energy of the ion-electron system (eV)
  ---------------------------------------------------
  alpha Z        PSCENC =        44.20834230
  Ewald energy   TEWEN  =      -939.03347796
  -Hartree energ DENC   =      -209.67669599
  -exchange      EXHF   =         0.00000000
  -V(xc)+E(xc)   XCENC  =       -11.15625272
  PAW double counting   =      1078.69235339    -1034.61787962
  entropy T*S    EENTRO =        -0.00012393
  eigenvalues    EBANDS =        31.65025300
  atomic energy  EATOM  =      1037.24027811
  ---------------------------------------------------
  free energy    TOTEN  =        -2.69320342 eV

  energy without entropy =       -2.69307949  energy(sigma->0) =       -2.69316211


--------------------------------------------------------------------------------------------------------




----------------------------------------- Iteration    1(   9)  ---------------------------------------


    POTLOK:  cpu time    0.03: real time    0.03
    SETDIJ:  cpu time    0.01: real time    0.01
     EDDAV:  cpu time    0.57: real time    0.57
       DOS:  cpu time    0.00: real time    0.01
    --------------------------------------------
      LOOP:  cpu time    0.62: real time    0.63

 eigenvalue-minimisations  :   554
 total energy-change (2. order) :-0.1333610E-04  (-0.9001711E-06)
 number of electron      10.9999937 magnetization 
 augmentation part        5.2712773 magnetization 

 Free energy of the ion-electron system (eV)
  ---------------------------------------------------
  alpha Z        PSCENC =        44.20834230
  Ewald energy   TEWEN  =      -939.03347796
  -Hartree energ DENC   =      -209.70739583
  -exchange      EXHF   =         0.00000000
  -V(xc)+E(xc)   XCENC  =       -11.15538186
  PAW double counting   =      1078.45992538    -1034.35593290
  entropy T*S    EENTRO =        -0.00012563
  eigenvalues    EBANDS =        31.65055163
  atomic energy  EATOM  =      1037.24027811
  ---------------------------------------------------
  free energy    TOTEN  =        -2.69321675 eV

  energy without entropy =       -2.69309112  energy(sigma->0) =       -2.69317488


--------------------------------------------------------------------------------------------------------




 average (electrostatic) potential at core
  the test charge radii are     1.1249
  (the norm of the test charge is              1.0000)
       1 -72.0421
 
 
 
 E-fermi :   6.8616     XC(G=0): -11.5009     alpha+bet :-11.9299


 k-point     1 :       0.0625    0.0625    0.0625
  band No.  band energies     occupation 
      1       0.0490      2.00000
      2       2.4409      2.00000
      3       2.4907      2.00000
      4       2.4907      2.00000
      5       3.2863      2.00000
      6       3.2863      2.00000
      7      22.5386      0.00000
      8      24.4309      0.00000
      9      25.4390      0.00000

 k-point     2 :       0.1875    0.0625    0.0625
  band No.  band energies     occupation 
      1       0.6002      2.00000
      2       2.3378      2.00000
      3       2.6087      2.00000
      4       2.6325      2.00000
      5       3.1834      2.00000
      6       3.3601      2.00000
      7      21.0293      0.00000
      8      22.5889      0.00000
      9      24.6971      0.00000

 k-point     3 :       0.3125    0.0625    0.0625
  band No.  band energies     occupation 
      1       1.3220      2.00000
      2       2.5663      2.00000
      3       2.6548      2.00000
      4       2.8361      2.00000
      5       3.3265      2.00000
      6       3.7566      2.00000
      7      16.4199      0.00000
      8      22.0183      0.00000
      9      24.0648      0.00000

 k-point     4 :       0.4375    0.0625    0.0625
  band No.  band energies     occupation 
      1       1.2855      2.00000
      2       2.4734      2.00000
      3       2.5321      2.00000
      4       3.6606      2.00000
      5       3.7308      2.00000
      6       5.4259      2.00000
      7      12.0821      0.00000
      8      21.5992      0.00000
      9      22.9439      0.00000

 k-point     5 :      -0.4375    0.0625    0.0625
  band No.  band energies     occupation 
      1       1.2307      2.00000
      2       2.4161      2.00000
      3       2.4984      2.00000
      4       3.7541      2.00000
      5       3.9440      2.00000
      6       6.9306      0.45280
      7      10.0074      0.00000
      8      21.6372      0.00000
      9      22.9013      0.00000

 k-point     6 :      -0.3125    0.0625    0.0625
  band No.  band energies     occupation 
      1       1.3198      2.00000
      2       2.5016      2.00000
      3       2.5892      2.00000
      4       3.3412      2.00000
      5       3.7917      2.00000
      6       4.6164      2.00000
      7      13.4435      0.00000
      8      22.1706      0.00000
      9      22.9777      0.00000

 k-point     7 :      -0.1875    0.0625    0.0625
  band No.  band energies     occupation 
      1       1.1724      2.00000
      2       2.4317      2.00000
      3       2.6740      2.00000
      4       2.6811      2.00000
      5       3.3363      2.00000
      6       3.4704      2.00000
      7      17.9696      0.00000
      8      22.8957      0.00000
      9      23.6294      0.00000

 k-point     8 :      -0.0625    0.0625    0.0625
  band No.  band energies     occupation 
      1       0.3358      2.00000
      2       2.3543      2.00000
      3       2.5773      2.00000
      4       2.5787      2.00000
      5       3.1973      2.00000
      6       3.3368      2.00000
      7      22.2169      0.00000
      8      23.4159      0.00000
      9      24.4710      0.00000

 k-point     9 :       0.1875    0.1875    0.0625
  band No.  band energies     occupation 
      1       0.8616      2.00000
      2       2.1820      2.00000
      3       2.7376      2.00000
      4       2.7499      2.00000
      5       3.1065      2.00000
      6       3.4311      2.00000
      7      21.2835      0.00000
      8      22.8872      0.00000
      9      22.9594      0.00000

 k-point    10 :       0.3125    0.1875    0.0625
  band No.  band energies     occupation 
      1       1.5712      2.00000
      2       2.0620      2.00000
      3       2.6480      2.00000
      4       2.9610      2.00000
      5       3.3805      2.00000
      6       3.8500      2.00000
      7      18.3885      0.00000
      8      20.3032      0.00000
      9      23.1208      0.00000

 k-point    11 :       0.4375    0.1875    0.0625
  band No.  band energies     occupation 
      1       1.5882      2.00000
      2       2.3680      2.00000
      3       2.6599      2.00000
      4       2.9130      2.00000
      5       3.8030      2.00000
      6       5.5373      2.00000
      7      13.8660      0.00000
      8      19.8878      0.00000
      9      21.0686      0.00000

 k-point    12 :      -0.4375    0.1875    0.0625
  band No.  band energies     occupation 
      1       1.5211      2.00000
      2       2.2476      2.00000
      3       2.7623      2.00000
      4       3.1390      2.00000
      5       3.9133      2.00000
      6       8.0942      0.00000
      7      10.2350      0.00000
      8      19.5001      0.00000
      9      20.3265      0.00000

 k-point    13 :      -0.3125    0.1875    0.0625
  band No.  band energies     occupation 
      1       1.6078      2.00000
      2       2.3147      2.00000
      3       2.7603      2.00000
      4       3.0152      2.00000
      5       3.6892      2.00000
      6       6.4244      2.00838
      7      12.5253      0.00000
      8      18.7592      0.00000
      9      21.6115      0.00000

 k-point    14 :      -0.1875    0.1875    0.0625
  band No.  band energies     occupation 
      1       1.7457      2.00000
      2       2.2291      2.00000
      3       2.5668      2.00000
      4       2.9440      2.00000
      5       3.2385      2.00000
      6       4.4364      2.00000
      7      16.8706      0.00000
      8      18.8993      0.00000
      9      23.4762      0.00000

 k-point    15 :      -0.0625    0.1875    0.0625
  band No.  band energies     occupation 
      1       1.0742      2.00000
      2       2.2250      2.00000
      3       2.6962      2.00000
      4       2.7471      2.00000
      5       3.1536      2.00000
      6       3.5208      2.00000
      7      19.6824      0.00000
      8      21.5082      0.00000
      9      24.3813      0.00000

 k-point    16 :       0.3125    0.3125    0.0625
  band No.  band energies     occupation 
      1       1.6171      2.00000
      2       1.7399      2.00000
      3       3.1493      2.00000
      4       3.2734      2.00000
      5       3.6980      2.00000
      6       4.0700      2.00000
      7      18.7654      0.00000
      8      19.7997      0.00000
      9      20.4348      0.00000

 k-point    17 :       0.4375    0.3125    0.0625
  band No.  band energies     occupation 
      1       1.5707      2.00000
      2       1.6981      2.00000
      3       3.0745      2.00000
      4       3.5142      2.00000
      5       3.8370      2.00000
      6       5.9159      2.00000
      7      16.1432      0.00000
      8      17.8098      0.00000
      9      18.1251      0.00000

 k-point    18 :      -0.4375    0.3125    0.0625
  band No.  band energies     occupation 
      1       1.5955      2.00000
      2       1.9645      2.00000
      3       2.8565      2.00000
      4       3.3126      2.00000
      5       3.9553      2.00000
      6       8.7432      0.00000
      7      12.1806      0.00000
      8      15.9453      0.00000
      9      18.3468      0.00000

 k-point    19 :      -0.3125    0.3125    0.0625
  band No.  band energies     occupation 
      1       1.8358      2.00000
      2       2.2405      2.00000
      3       2.5418      2.00000
      4       3.1729      2.00000
      5       3.7037      2.00000
      6       8.8568      0.00000
      7      12.3355      0.00000
      8      14.7266      0.00000
      9      19.6965      0.00000

 k-point    20 :      -0.1875    0.3125    0.0625
  band No.  band energies     occupation 
      1       1.9497      2.00000
      2       2.2418      2.00000
      3       2.5105      2.00000
      4       3.0697      2.00000
      5       3.4370      2.00000
      6       6.3111      2.00070
      7      14.4057      0.00000
      8      16.5165      0.00000
      9      21.5606      0.00000

 k-point    21 :      -0.0625    0.3125    0.0625
  band No.  band energies     occupation 
      1       1.4746      2.00000
      2       2.5096      2.00000
      3       2.6916      2.00000
      4       2.8451      2.00000
      5       3.5630      2.00000
      6       4.4166      2.00000
      7      15.0495      0.00000
      8      20.9370      0.00000
      9      23.1278      0.00000

 k-point    22 :       0.4375    0.4375    0.0625
  band No.  band energies     occupation 
      1       1.3059      2.00000
      2       1.3781      2.00000
      3       3.7680      2.00000
      4       3.8165      2.00000
      5       3.9778      2.00000
      6       6.9656      0.23807
      7      15.0615      0.00000
      8      16.8313      0.00000
      9      17.5958      0.00000

 k-point    23 :      -0.4375    0.4375    0.0625
  band No.  band energies     occupation 
      1       1.3239      2.00000
      2       1.4371      2.00000
      3       3.5881      2.00000
      4       3.7620      2.00000
      5       4.0686      2.00000
      6       9.0766      0.00000
      7      13.1537      0.00000
      8      15.1361      0.00000
      9      16.8046      0.00000

 k-point    24 :      -0.3125    0.4375    0.0625
  band No.  band energies     occupation 
      1       1.5505      2.00000
      2       1.8805      2.00000
      3       2.9716      2.00000
      4       3.4443      2.00000
      5       3.9348      2.00000
      6      10.5190      0.00000
      7      11.7941      0.00000
      8      13.7632      0.00000
      9      18.0072      0.00000

 k-point    25 :      -0.1875    0.4375    0.0625
  band No.  band energies     occupation 
      1       1.7214      2.00000
      2       2.1614      2.00000
      3       2.8342      2.00000
      4       2.9769      2.00000
      5       3.8316      2.00000
      6       8.9509      0.00000
      7      10.5776      0.00000
      8      17.0526      0.00000
      9      19.9061      0.00000

 k-point    26 :      -0.0625    0.4375    0.0625
  band No.  band energies     occupation 
      1       1.3595      2.00000
      2       2.3734      2.00000
      3       2.6026      2.00000
      4       3.4329      2.00000
      5       3.8828      2.00000
      6       6.6585      2.05335
      7      10.9848      0.00000
      8      20.8975      0.00000
      9      21.8078      0.00000

 k-point    27 :      -0.4375   -0.4375    0.0625
  band No.  band energies     occupation 
      1       1.2003      2.00000
      2       1.2954      2.00000
      3       3.8672      2.00000
      4       3.9842      2.00000
      5       4.0778      2.00000
      6       8.4648      0.00000
      7      13.0847      0.00000
      8      16.3648      0.00000
      9      17.1060      0.00000

 k-point    28 :      -0.3125   -0.4375    0.0625
  band No.  band energies     occupation 
      1       1.4213      2.00000
      2       1.5234      2.00000
      3       3.3719      2.00000
      4       3.7193      2.00000
      5       3.9692      2.00000
      6       7.5207     -0.00003
      7      14.9781      0.00000
      8      15.7487      0.00000
      9      17.2361      0.00000

 k-point    29 :      -0.1875   -0.4375    0.0625
  band No.  band energies     occupation 
      1       1.6265      2.00000
      2       2.1426      2.00000
      3       2.7182      2.00000
      4       3.1107      2.00000
      5       3.9269      2.00000
      6       7.0113      0.04866
      7      12.8928      0.00000
      8      18.4699      0.00000
      9      19.0059      0.00000

 k-point    30 :      -0.3125   -0.3125    0.0625
  band No.  band energies     occupation 
      1       1.4780      2.00000
      2       1.5360      2.00000
      3       3.5201      2.00000
      4       3.5552      2.00000
      5       3.8410      2.00000
      6       5.3603      2.00000
      7      17.4788      0.00000
      8      17.8441      0.00000
      9      18.5222      0.00000

 k-point    31 :      -0.1875   -0.3125    0.0625
  band No.  band energies     occupation 
      1       1.7047      2.00000
      2       1.9022      2.00000
      3       2.7648      2.00000
      4       3.2306      2.00000
      5       3.6557      2.00000
      6       4.6276      2.00000
      7      17.1960      0.00000
      8      19.0818      0.00000
      9      20.6047      0.00000

 k-point    32 :      -0.1875   -0.1875    0.0625
  band No.  band energies     occupation 
      1       1.4320      2.00000
      2       1.9641      2.00000
      3       2.8548      2.00000
      4       2.9902      2.00000
      5       3.3267      2.00000
      6       3.5567      2.00000
      7      20.0369      0.00000
      8      21.3245      0.00000
      9      22.4896      0.00000

 k-point    33 :       0.1875    0.1875    0.1875
  band No.  band energies     occupation 
      1       0.8161      2.00000
      2       2.4200      2.00000
      3       2.6227      2.00000
      4       2.6227      2.00000
      5       3.2935      2.00000
      6       3.2935      2.00000
      7      19.4483      0.00000
      8      23.2419      0.00000
      9      25.2876      0.00000

 k-point    34 :       0.3125    0.1875    0.1875
  band No.  band energies     occupation 
      1       1.4238      2.00000
      2       2.2503      2.00000
      3       2.6983      2.00000
      4       2.7975      2.00000
      5       3.0889      2.00000
      6       3.8553      2.00000
      7      18.1990      0.00000
      8      20.1577      0.00000
      9      24.9336      0.00000

 k-point    35 :       0.4375    0.1875    0.1875
  band No.  band energies     occupation 
      1       1.8652      2.00000
      2       2.2879      2.00000
      3       2.6669      2.00000
      4       2.9019      2.00000
      5       3.2275      2.00000
      6       5.2314      2.00000
      7      15.5409      0.00000
      8      17.6153      0.00000
      9      23.6322      0.00000

 k-point    36 :      -0.4375    0.1875    0.1875
  band No.  band energies     occupation 
      1       1.6481      2.00000
      2       2.2582      2.00000
      3       2.8190      2.00000
      4       3.0211      2.00000
      5       3.7120      2.00000
      6       7.5702     -0.00001
      7      11.4161      0.00000
      8      17.7893      0.00000
      9      22.1653      0.00000

 k-point    37 :      -0.3125    0.1875    0.1875
  band No.  band energies     occupation 
      1       1.5496      2.00000
      2       2.2410      2.00000
      3       2.8666      2.00000
      4       2.9326      2.00000
      5       3.9676      2.00000
      6       7.5208     -0.00003
      7      11.3340      0.00000
      8      18.8868      0.00000
      9      20.7238      0.00000

 k-point    38 :      -0.1875    0.1875    0.1875
  band No.  band energies     occupation 
      1       1.6084      2.00000
      2       2.1813      2.00000
      3       2.6871      2.00000
      4       2.9857      2.00000
      5       3.8426      2.00000
      6       4.9139      2.00000
      7      15.4333      0.00000
      8      20.4974      0.00000
      9      20.7343      0.00000

 k-point    39 :       0.3125    0.3125    0.1875
  band No.  band energies     occupation 
      1       1.4967      2.00000
      2       2.3820      2.00000
      3       2.5891      2.00000
      4       2.8027      2.00000
      5       3.6669      2.00000
      6       3.8809      2.00000
      7      16.6262      0.00000
      8      21.9696      0.00000
      9      22.3894      0.00000

 k-point    40 :       0.4375    0.3125    0.1875
  band No.  band energies     occupation 
      1       1.8429      2.00000
      2       2.1953      2.00000
      3       2.4231      2.00000
      4       3.1839      2.00000
      5       3.5157      2.00000
      6       5.3865      2.00000
      7      15.7095      0.00000
      8      17.7635      0.00000
      9      20.9684      0.00000

 k-point    41 :      -0.4375    0.3125    0.1875
  band No.  band energies     occupation 
      1       2.0128      2.00000
      2       2.0905      2.00000
      3       2.3942      2.00000
      4       3.2543      2.00000
      5       3.6892      2.00000
      6       7.7095      0.00000
      7      13.4725      0.00000
      8      15.6441      0.00000
      9      18.9606      0.00000

 k-point    42 :      -0.3125    0.3125    0.1875
  band No.  band energies     occupation 
      1       1.8269      2.00000
      2       2.0532      2.00000
      3       2.6151      2.00000
      4       3.1863      2.00000
      5       3.9026      2.00000
      6       9.6564      0.00000
      7      10.9325      0.00000
      8      16.4874      0.00000
      9      17.5575      0.00000

 k-point    43 :      -0.1875    0.3125    0.1875
  band No.  band energies     occupation 
      1       1.7612      2.00000
      2       1.9598      2.00000
      3       2.6151      2.00000
      4       3.4241      2.00000
      5       3.7429      2.00000
      6       6.7330      1.87658
      7      14.7387      0.00000
      8      16.7880      0.00000
      9      18.3619      0.00000

 k-point    44 :       0.4375    0.4375    0.1875
  band No.  band energies     occupation 
      1       1.5517      2.00000
      2       1.9182      2.00000
      3       2.9648      2.00000
      4       3.2113      2.00000
      5       3.9636      2.00000
      6       6.3170      2.00081
      7      14.4243      0.00000
      8      18.1090      0.00000
      9      19.3088      0.00000

 k-point    45 :      -0.4375    0.4375    0.1875
  band No.  band energies     occupation 
      1       1.6392      2.00000
      2       1.7748      2.00000
      3       2.8602      2.00000
      4       3.5465      2.00000
      5       3.9345      2.00000
      6       8.3791      0.00000
      7      13.9890      0.00000
      8      15.5801      0.00000
      9      16.4022      0.00000

 k-point    46 :      -0.3125    0.4375    0.1875
  band No.  band energies     occupation 
      1       1.7656      2.00000
      2       2.0433      2.00000
      3       2.5073      2.00000
      4       3.3485      2.00000
      5       4.0647      2.00000
      6      11.2068      0.00000
      7      12.3895      0.00000
      8      13.8464      0.00000
      9      15.1341      0.00000

 k-point    47 :      -0.1875    0.4375    0.1875
  band No.  band energies     occupation 
      1       1.8814      2.00000
      2       2.0496      2.00000
      3       2.4334      2.00000
      4       3.3413      2.00000
      5       3.9186      2.00000
      6       9.3922      0.00000
      7      12.7805      0.00000
      8      14.9728      0.00000
      9      16.5254      0.00000

 k-point    48 :      -0.4375   -0.4375    0.1875
  band No.  band energies     occupation 
      1       1.3821      2.00000
      2       1.6186      2.00000
      3       3.3953      2.00000
      4       3.6175      2.00000
      5       3.9871      2.00000
      6       9.6166      0.00000
      7      12.9735      0.00000
      8      13.7869      0.00000
      9      18.0401      0.00000

 k-point    49 :      -0.3125   -0.4375    0.1875
  band No.  band energies     occupation 
      1       1.5452      2.00000
      2       1.6961      2.00000
      3       3.0463      2.00000
      4       3.5444      2.00000
      5       4.0656      2.00000
      6      10.0589      0.00000
      7      13.1880      0.00000
      8      14.0064      0.00000
      9      15.9153      0.00000

 k-point    50 :      -0.3125   -0.3125    0.1875
  band No.  band energies     occupation 
      1       1.4529      2.00000
      2       1.7185      2.00000
      3       3.2333      2.00000
      4       3.4433      2.00000
      5       4.0081      2.00000
      6       7.9809      0.00000
      7      13.6480      0.00000
      8      15.5972      0.00000
      9      18.4726      0.00000

 k-point    51 :       0.3125    0.3125    0.3125
  band No.  band energies     occupation 
      1       1.2788      2.00000
      2       2.5779      2.00000
      3       2.5779      2.00000
      4       3.5597      2.00000
      5       3.5780      2.00000
      6       3.5780      2.00000
      7      14.8280      0.00000
      8      22.5862      0.00000
      9      24.5157      0.00000

 k-point    52 :       0.4375    0.3125    0.3125
  band No.  band energies     occupation 
      1       1.5146      2.00000
      2       2.4391      2.00000
      3       2.6868      2.00000
      4       3.1152      2.00000
      5       3.4918      2.00000
      6       5.2559      2.00000
      7      13.6811      0.00000
      8      19.7635      0.00000
      9      23.1956      0.00000

 k-point    53 :      -0.4375    0.3125    0.3125
  band No.  band energies     occupation 
      1       1.8977      2.00000
      2       2.2797      2.00000
      3       2.6181      2.00000
      4       3.0273      2.00000
      5       3.5159      2.00000
      6       7.4527     -0.00024
      7      13.2827      0.00000
      8      15.4855      0.00000
      9      21.9970      0.00000

 k-point    54 :      -0.3125    0.3125    0.3125
  band No.  band energies     occupation 
      1       1.6457      2.00000
      2       2.1208      2.00000
      3       2.7809      2.00000
      4       3.2872      2.00000
      5       3.7888      2.00000
      6      10.2122      0.00000
      7      11.3296      0.00000
      8      14.1033      0.00000
      9      19.7402      0.00000

 k-point    55 :       0.4375    0.4375    0.3125
  band No.  band energies     occupation 
      1       1.4247      2.00000
      2       2.3812      2.00000
      3       2.6898      2.00000
      4       3.1103      2.00000
      5       3.9302      2.00000
      6       5.9414      2.00000
      7      12.2728      0.00000
      8      21.2165      0.00000
      9      21.7006      0.00000

 k-point    56 :      -0.4375    0.4375    0.3125
  band No.  band energies     occupation 
      1       1.7355      2.00000
      2       2.1520      2.00000
      3       2.7408      2.00000
      4       3.0274      2.00000
      5       3.8409      2.00000
      6       7.9100      0.00000
      7      11.5948      0.00000
      8      17.9458      0.00000
      9      19.1413      0.00000

 k-point    57 :      -0.3125    0.4375    0.3125
  band No.  band energies     occupation 
      1       1.7991      2.00000
      2       2.1070      2.00000
      3       2.5204      2.00000
      4       3.2947      2.00000
      5       3.9171      2.00000
      6      10.5262      0.00000
      7      11.6115      0.00000
      8      14.2330      0.00000
      9      17.2473      0.00000

 k-point    58 :      -0.4375   -0.4375    0.3125
  band No.  band energies     occupation 
      1       1.6315      2.00000
      2       2.1442      2.00000
      3       2.8262      2.00000
      4       3.0888      2.00000
      5       3.9042      2.00000
      6       9.3056      0.00000
      7      10.6842      0.00000
      8      16.3824      0.00000
      9      20.0681      0.00000

 k-point    59 :       0.4375    0.4375    0.4375
  band No.  band energies     occupation 
      1       1.1912      2.00000
      2       2.4665      2.00000
      3       2.4665      2.00000
      4       3.8917      2.00000
      5       3.8917      2.00000
      6       6.0075      2.00000
      7      10.8121      0.00000
      8      21.8994      0.00000
      9      23.6278      0.00000

 k-point    60 :      -0.4375    0.4375    0.4375
  band No.  band energies     occupation 
      1       1.3925      2.00000
      2       2.3341      2.00000
      3       2.6230      2.00000
      4       3.4273      2.00000
      5       3.8770      2.00000
      6       7.5727     -0.00001
      7      10.1220      0.00000
      8      20.1003      0.00000
      9      22.4120      0.00000


--------------------------------------------------------------------------------------------------------


 soft charge-density along one line, spin component           1
         0         1         2         3         4         5         6         7         8         9
x     5.7287    0.0000    1.1733    0.0000   -0.3036    0.0000   -0.0461    0.0000    0.0220    0.0000
x     0.0027    0.0000    0.0000    0.0000    0.0000    0.0000
y     5.7287    0.0000    1.1733    0.0000   -0.3036    0.0000   -0.0461    0.0000    0.0220    0.0000
y     0.0027    0.0000    0.0000    0.0000    0.0000    0.0000
z     5.7287    0.0000    1.1733    0.0000   -0.3036    0.0000   -0.0461    0.0000    0.0220    0.0000
z     0.0027    0.0000    0.0000    0.0000    0.0000    0.0000
 total charge-density along one line
x    11.0000    0.0000    4.9299    0.0000    0.9104    0.0000    0.0262    0.0000    0.0071    0.0000
x     0.0068    0.0000   -0.0016    0.0000    0.0007    0.0000   -0.0003    0.0000    0.0001    0.0000
x     0.0000    0.0000    0.0000    0.0000    0.0000    0.0000    0.0000    0.0000    0.0000    0.0000
y    11.0000    0.0000    4.9299    0.0000    0.9104    0.0000    0.0262    0.0000    0.0071    0.0000
y     0.0068    0.0000   -0.0016    0.0000    0.0007    0.0000   -0.0003    0.0000    0.0001    0.0000
y     0.0000    0.0000    0.0000    0.0000    0.0000    0.0000    0.0000    0.0000    0.0000    0.0000
z    11.0000    0.0000    4.9299    0.0000    0.9104    0.0000    0.0262    0.0000    0.0071    0.0000
z     0.0068    0.0000   -0.0016    0.0000    0.0007    0.0000   -0.0003    0.0000    0.0001    0.0000
z     0.0000    0.0000    0.0000    0.0000    0.0000    0.0000    0.0000    0.0000    0.0000    0.0000
 
 pseudopotential strength for first ion, spin component:           1
 -4.778   0.000   0.000  -0.004   0.000  -4.980   0.000   0.000
  0.000  -4.776   0.000   0.000  -0.004   0.000  -4.978   0.000
  0.000   0.000  -4.781   0.000   0.000   0.000   0.000  -4.983
 -0.004   0.000   0.000  -4.776   0.000  -0.004   0.000   0.000
  0.000  -0.004   0.000   0.000  -4.778   0.000  -0.004   0.000
 -4.980   0.000   0.000  -0.004   0.000  -5.149   0.000   0.000
  0.000  -4.978   0.000   0.000  -0.004   0.000  -5.146   0.000
  0.000   0.000  -4.983   0.000   0.000   0.000   0.000  -5.152
 -0.004   0.000   0.000  -4.978   0.000  -0.004   0.000   0.000
  0.000  -0.004   0.000   0.000  -4.980   0.000  -0.004   0.000
  0.000   0.000   0.000   0.000   0.000   0.000   0.000   0.000
  0.000   0.000   0.000   0.000   0.000   0.000   0.000   0.000
  0.000   0.000   0.000   0.000   0.000   0.000   0.000   0.000
  0.000   0.000   0.000   0.000   0.000   0.000   0.000   0.000
  0.000   0.000   0.000   0.000   0.000   0.000   0.000   0.000
  0.000   0.000   0.000   0.000   0.000   0.000   0.000   0.000
  0.000   0.000   0.000   0.000   0.000   0.000   0.000   0.000
  0.000   0.000   0.000   0.000   0.000   0.000   0.000   0.000
 total augmentation occupancy for first ion, spin component:           1
  3.140   0.000   0.000  -0.006   0.000  -1.079   0.000   0.000  -0.046   0.000   0.000   0.000   0.000   0.000   0.000   0.000
  0.000   3.144   0.000   0.000  -0.006   0.000  -1.047   0.000   0.000  -0.046   0.000   0.000   0.000   0.000   0.000   0.000
  0.000   0.000   3.136   0.000   0.000   0.000   0.000  -1.112   0.000   0.000   0.000   0.000   0.000   0.000   0.000   0.000
 -0.006   0.000   0.000   3.144   0.000  -0.046   0.000   0.000  -1.047   0.000   0.000   0.000   0.000   0.000   0.000   0.000
  0.000  -0.006   0.000   0.000   3.140   0.000  -0.046   0.000   0.000  -1.079   0.000   0.000   0.000   0.000   0.000   0.000
 -1.079   0.000   0.000  -0.046   0.000   0.972   0.000   0.000   0.088   0.000   0.000   0.000   0.000   0.000   0.000   0.000
  0.000  -1.047   0.000   0.000  -0.046   0.000   0.910   0.000   0.000   0.088   0.000   0.000   0.000   0.000   0.000   0.000
  0.000   0.000  -1.112   0.000   0.000   0.000   0.000   1.034   0.000   0.000   0.000   0.000   0.000   0.000   0.000   0.000
 -0.046   0.000   0.000  -1.047   0.000   0.088   0.000   0.000   0.910   0.000   0.000   0.000   0.000   0.000   0.000   0.000
  0.000  -0.046   0.000   0.000  -1.079   0.000   0.088   0.000   0.000   0.972   0.000   0.000   0.000   0.000   0.000   0.000
  0.000   0.000   0.000   0.000   0.000   0.000   0.000   0.000   0.000   0.000   1.903  -0.330   0.000   0.000   0.000   0.000
  0.000   0.000   0.000   0.000   0.000   0.000   0.000   0.000   0.000   0.000  -0.330   0.072   0.000   0.000   0.000   0.000
  0.000   0.000   0.000   0.000   0.000   0.000   0.000   0.000   0.000   0.000   0.000   0.000   0.133   0.000   0.000  -0.008
  0.000   0.000   0.000   0.000   0.000   0.000   0.000   0.000   0.000   0.000   0.000   0.000   0.000   0.133   0.000   0.000
  0.000   0.000   0.000   0.000   0.000   0.000   0.000   0.000   0.000   0.000   0.000   0.000   0.000   0.000   0.133   0.000
  0.000   0.000   0.000   0.000   0.000   0.000   0.000   0.000   0.000   0.000   0.000   0.000  -0.008   0.000   0.000   0.001
  0.000   0.000   0.000   0.000   0.000   0.000   0.000   0.000   0.000   0.000   0.000   0.000   0.000  -0.008   0.000   0.000
  0.000   0.000   0.000   0.000   0.000   0.000   0.000   0.000   0.000   0.000   0.000   0.000   0.000   0.000  -0.008   0.000


------------------------ aborting loop because EDIFF is reached ----------------------------------------


    CHARGE:  cpu time    0.06: real time    0.06
    FORLOC:  cpu time    0.00: real time    0.00
    FORNL :  cpu time    0.11: real time    0.11
    STRESS:  cpu time    0.44: real time    0.44
    FORCOR:  cpu time    0.03: real time    0.03
    FORHAR:  cpu time    0.01: real time    0.01
    MIXING:  cpu time    0.00: real time    0.00
    OFIELD:  cpu time    0.00: real time    0.00

  FORCE on cell =-STRESS in cart. coord.  units (eV):
  Direction    XX          YY          ZZ          XY          YZ          ZX
  --------------------------------------------------------------------------------------
  Alpha Z    44.20834    44.20834    44.20834
  Ewald    -313.01117  -313.01117  -313.01117     0.00000     0.00000     0.00000
  Hartree    69.89617    69.89617    69.89617     0.00000     0.00000     0.00000
  E(xc)     -57.94758   -57.94757   -57.94757    -0.00001     0.00000     0.00000
  Local      37.90259    37.90236    37.90230     0.00020     0.00008     0.00014
  n-local   -11.12505   -10.14653    -9.30290    -0.62468    -0.15671     1.50557
  augment    92.13764    92.13787    92.13793    -0.00020    -0.00008    -0.00014
  Kinetic   136.57631   136.69859   135.45721    -0.15422     0.05451    -0.66035
  Fock        0.00000     0.00000     0.00000     0.00000     0.00000     0.00000
  -------------------------------------------------------------------------------------
  Total      -0.76145    -0.76145    -0.76145     0.00000     0.00000     0.00000
  in kB     -63.40800   -63.40800   -63.40800     0.00000     0.00000     0.00000
  external pressure =      -63.41 kB  Pullay stress =        0.00 kB


 VOLUME and BASIS-vectors are now :
 -----------------------------------------------------------------------------
  energy-cutoff  :      350.00
  volume of cell :       19.24
      direct lattice vectors                 reciprocal lattice vectors
     3.007749404  0.000000000  0.000000000     0.332474507 -0.191954246 -0.135732149
     1.503874702  2.604787392  0.000000000     0.000000000  0.383908492 -0.135732149
     1.503874702  0.868262464  2.455817105     0.000000000  0.000000000  0.407196447

  length of vectors
     3.007749404  3.007749404  3.007749404     0.407196447  0.407196447  0.407196447


 FORCES acting on ions
    electron-ion (+dipol)            ewald-force                    non-local-force                 convergence-correction
 -----------------------------------------------------------------------------------------------
   -.421E-13 0.115E-14 -.510E-14   -.137E-14 0.239E-15 0.332E-15   -.290E-23 -.207E-24 0.000E+00   -.437E-13 -.245E-13 -.161E-13
 -----------------------------------------------------------------------------------------------
   -.421E-13 0.115E-14 -.510E-14   -.137E-14 0.239E-15 0.332E-15   -.290E-23 -.207E-24 0.000E+00   -.437E-13 -.245E-13 -.161E-13
 
 
 POSITION                                       TOTAL-FORCE (eV/Angst)
 -----------------------------------------------------------------------------------
      0.00000      0.00000      0.00000         0.000000      0.000000      0.000000
 -----------------------------------------------------------------------------------
    total drift:                                0.000000      0.000000      0.000000


--------------------------------------------------------------------------------------------------------



  FREE ENERGIE OF THE ION-ELECTRON SYSTEM (eV)
  ---------------------------------------------------
  free  energy   TOTEN  =        -2.69321675 eV

  energy  without entropy=       -2.69309112  energy(sigma->0) =       -2.69317488
 


--------------------------------------------------------------------------------------------------------


    POTLOK:  cpu time    0.05: real time    0.05


--------------------------------------------------------------------------------------------------------


 stress matrix after NEB project (eV)
     -0.76145      0.00000      0.00000
      0.00000     -0.76145      0.00000
      0.00000      0.00000     -0.76145
  FORCES: max atom, RMS     0.000000    0.000000
  FORCE total and by dimension    0.000000    0.000000
  Stress total and by dimension    1.318876    0.761454


--------------------------------------------------------------------------------------------------------


  
 reached required accuracy - stopping structural energy minimisation
 writing wavefunctions
     LOOP+:  cpu time    9.08: real time    9.48
    4ORBIT:  cpu time    0.00: real time    0.00

 total amount of memory used by VASP on root node    36522. kBytes
========================================================================

   base      :      30000. kBytes
   nonl-proj :       2570. kBytes
   grid      :       1216. kBytes
   one-center:         15. kBytes
   wavefun   :       2721. kBytes
 
  
  
 General timing and accounting informations for this job:
 ========================================================
  
                  Total CPU time used (sec):        9.567
                            User time (sec):        9.381
                          System time (sec):        0.186
                         Elapsed time (sec):       10.159
  
                   Maximum memory used (kb):           0.
                   Average memory used (kb):           0.
  
                          Minor page faults:         5683
                          Major page faults:            0
                 Voluntary context switches:         3365
