<?xml version="1.0" encoding="ISO-8859-1"?>
<modeling>
 <generator>
  <i name="program" type="string">vasp </i>
  <i name="version" type="string">5.3.5  </i>
  <i name="subversion" type="string">31Mar14 (build Jan 09 2015 16:57:47) complex                          serial </i>
  <i name="platform" type="string">LinuxIFC </i>
  <i name="date" type="string">2015 03 24 </i>
  <i name="time" type="string">14:26:01 </i>
 </generator>
 <incar>
  <i type="string" name="PREC">normal</i>
  <i type="int" name="IBRION">     2</i>
  <i type="int" name="NSW">    30</i>
  <i type="int" name="ISIF">     2</i>
  <i name="ENCUT">    350.00000000</i>
 </incar>
 <kpoints>
  <generation param="Monkhorst-Pack">
   <v type="int" name="divisions">       8        8        8 </v>
   <v name="usershift">      0.00000000       0.00000000       0.00000000 </v>
   <v name="genvec1">      0.12500000       0.00000000       0.00000000 </v>
   <v name="genvec2">      0.00000000       0.12500000       0.00000000 </v>
   <v name="genvec3">      0.00000000       0.00000000       0.12500000 </v>
   <v name="shift">      0.50000000       0.50000000       0.50000000 </v>
  </generation>
  <varray name="kpointlist" >
   <v>       0.06250000       0.06250000       0.06250000 </v>
   <v>       0.18750000       0.06250000       0.06250000 </v>
   <v>       0.31250000       0.06250000       0.06250000 </v>
   <v>       0.43750000       0.06250000       0.06250000 </v>
   <v>      -0.43750000       0.06250000       0.06250000 </v>
   <v>      -0.31250000       0.06250000       0.06250000 </v>
   <v>      -0.18750000       0.06250000       0.06250000 </v>
   <v>      -0.06250000       0.06250000       0.06250000 </v>
   <v>       0.18750000       0.18750000       0.06250000 </v>
   <v>       0.31250000       0.18750000       0.06250000 </v>
   <v>       0.43750000       0.18750000       0.06250000 </v>
   <v>      -0.43750000       0.18750000       0.06250000 </v>
   <v>      -0.31250000       0.18750000       0.06250000 </v>
   <v>      -0.18750000       0.18750000       0.06250000 </v>
   <v>      -0.06250000       0.18750000       0.06250000 </v>
   <v>       0.31250000       0.31250000       0.06250000 </v>
   <v>       0.43750000       0.31250000       0.06250000 </v>
   <v>      -0.43750000       0.31250000       0.06250000 </v>
   <v>      -0.31250000       0.31250000       0.06250000 </v>
   <v>      -0.18750000       0.31250000       0.06250000 </v>
   <v>      -0.06250000       0.31250000       0.06250000 </v>
   <v>       0.43750000       0.43750000       0.06250000 </v>
   <v>      -0.43750000       0.43750000       0.06250000 </v>
   <v>      -0.31250000       0.43750000       0.06250000 </v>
   <v>      -0.18750000       0.43750000       0.06250000 </v>
   <v>      -0.06250000       0.43750000       0.06250000 </v>
   <v>      -0.43750000      -0.43750000       0.06250000 </v>
   <v>      -0.31250000      -0.43750000       0.06250000 </v>
   <v>      -0.18750000      -0.43750000       0.06250000 </v>
   <v>      -0.31250000      -0.31250000       0.06250000 </v>
   <v>      -0.18750000      -0.31250000       0.06250000 </v>
   <v>      -0.18750000      -0.18750000       0.06250000 </v>
   <v>       0.18750000       0.18750000       0.18750000 </v>
   <v>       0.31250000       0.18750000       0.18750000 </v>
   <v>       0.43750000       0.18750000       0.18750000 </v>
   <v>      -0.43750000       0.18750000       0.18750000 </v>
   <v>      -0.31250000       0.18750000       0.18750000 </v>
   <v>      -0.18750000       0.18750000       0.18750000 </v>
   <v>       0.31250000       0.31250000       0.18750000 </v>
   <v>       0.43750000       0.31250000       0.18750000 </v>
   <v>      -0.43750000       0.31250000       0.18750000 </v>
   <v>      -0.31250000       0.31250000       0.18750000 </v>
   <v>      -0.18750000       0.31250000       0.18750000 </v>
   <v>       0.43750000       0.43750000       0.18750000 </v>
   <v>      -0.43750000       0.43750000       0.18750000 </v>
   <v>      -0.31250000       0.43750000       0.18750000 </v>
   <v>      -0.18750000       0.43750000       0.18750000 </v>
   <v>      -0.43750000      -0.43750000       0.18750000 </v>
   <v>      -0.31250000      -0.43750000       0.18750000 </v>
   <v>      -0.31250000      -0.31250000       0.18750000 </v>
   <v>       0.31250000       0.31250000       0.31250000 </v>
   <v>       0.43750000       0.31250000       0.31250000 </v>
   <v>      -0.43750000       0.31250000       0.31250000 </v>
   <v>      -0.31250000       0.31250000       0.31250000 </v>
   <v>       0.43750000       0.43750000       0.31250000 </v>
   <v>      -0.43750000       0.43750000       0.31250000 </v>
   <v>      -0.31250000       0.43750000       0.31250000 </v>
   <v>      -0.43750000      -0.43750000       0.31250000 </v>
   <v>       0.43750000       0.43750000       0.43750000 </v>
   <v>      -0.43750000       0.43750000       0.43750000 </v>
  </varray>
  <varray name="weights" >
   <v>       0.00390625 </v>
   <v>       0.01171875 </v>
   <v>       0.01171875 </v>
   <v>       0.01171875 </v>
   <v>       0.01171875 </v>
   <v>       0.01171875 </v>
   <v>       0.01171875 </v>
   <v>       0.01171875 </v>
   <v>       0.01171875 </v>
   <v>       0.02343750 </v>
   <v>       0.02343750 </v>
   <v>       0.02343750 </v>
   <v>       0.02343750 </v>
   <v>       0.02343750 </v>
   <v>       0.02343750 </v>
   <v>       0.01171875 </v>
   <v>       0.02343750 </v>
   <v>       0.02343750 </v>
   <v>       0.02343750 </v>
   <v>       0.02343750 </v>
   <v>       0.02343750 </v>
   <v>       0.01171875 </v>
   <v>       0.02343750 </v>
   <v>       0.02343750 </v>
   <v>       0.02343750 </v>
   <v>       0.02343750 </v>
   <v>       0.01171875 </v>
   <v>       0.02343750 </v>
   <v>       0.02343750 </v>
   <v>       0.01171875 </v>
   <v>       0.02343750 </v>
   <v>       0.01171875 </v>
   <v>       0.00390625 </v>
   <v>       0.01171875 </v>
   <v>       0.01171875 </v>
   <v>       0.01171875 </v>
   <v>       0.01171875 </v>
   <v>       0.01171875 </v>
   <v>       0.01171875 </v>
   <v>       0.02343750 </v>
   <v>       0.02343750 </v>
   <v>       0.02343750 </v>
   <v>       0.02343750 </v>
   <v>       0.01171875 </v>
   <v>       0.02343750 </v>
   <v>       0.02343750 </v>
   <v>       0.02343750 </v>
   <v>       0.01171875 </v>
   <v>       0.02343750 </v>
   <v>       0.01171875 </v>
   <v>       0.00390625 </v>
   <v>       0.01171875 </v>
   <v>       0.01171875 </v>
   <v>       0.01171875 </v>
   <v>       0.01171875 </v>
   <v>       0.02343750 </v>
   <v>       0.02343750 </v>
   <v>       0.01171875 </v>
   <v>       0.00390625 </v>
   <v>       0.01171875 </v>
  </varray>
 </kpoints>
 <parameters>
  <separator name="general" >
   <i type="string" name="SYSTEM">unknown system</i>
   <i type="logical" name="LCOMPAT"> F  </i>
  </separator>
  <separator name="electronic" >
   <i type="string" name="PREC">normal</i>
   <i name="ENMAX">    350.00000000</i>
   <i name="ENAUG">    412.49600000</i>
   <i name="EDIFF">      0.00010000</i>
   <i type="int" name="IALGO">    38</i>
   <i type="int" name="IWAVPR">    11</i>
   <i type="int" name="NBANDS">     9</i>
   <i name="NELECT">     11.00000000</i>
   <i type="int" name="TURBO">     0</i>
   <i type="int" name="IRESTART">     0</i>
   <i type="int" name="NREBOOT">     0</i>
   <i type="int" name="NMIN">     0</i>
   <i name="EREF">      0.00000000</i>
   <separator name="electronic smearing" >
    <i type="int" name="ISMEAR">     1</i>
    <i name="SIGMA">      0.20000000</i>
    <i name="KSPACING">      0.50000000</i>
    <i type="logical" name="KGAMMA"> T  </i>
   </separator>
   <separator name="electronic projectors" >
    <i type="logical" name="LREAL"> F  </i>
    <v name="ROPT">      0.00000000</v>
    <i type="int" name="LMAXPAW">  -100</i>
    <i type="int" name="LMAXMIX">     2</i>
    <i type="logical" name="NLSPLINE"> F  </i>
   </separator>
   <separator name="electronic startup" >
    <i type="int" name="ISTART">     0</i>
    <i type="int" name="ICHARG">     2</i>
    <i type="int" name="INIWAV">     1</i>
   </separator>
   <separator name="electronic spin" >
    <i type="int" name="ISPIN">     1</i>
    <i type="logical" name="LNONCOLLINEAR"> F  </i>
    <v name="MAGMOM">      1.00000000</v>
    <i name="NUPDOWN">     -1.00000000</i>
    <i type="logical" name="LSORBIT"> F  </i>
    <v name="SAXIS">      0.00000000      0.00000000      1.00000000</v>
    <i type="logical" name="LSPIRAL"> F  </i>
    <v name="QSPIRAL">      0.00000000      0.00000000      0.00000000</v>
    <i type="logical" name="LZEROZ"> F  </i>
   </separator>
   <separator name="electronic exchange-correlation" >
    <i type="logical" name="LASPH"> F  </i>
    <i type="logical" name="LMETAGGA"> F  </i>
   </separator>
   <separator name="electronic convergence" >
    <i type="int" name="NELM">    60</i>
    <i type="int" name="NELMDL">    -5</i>
    <i type="int" name="NELMIN">     2</i>
    <i name="ENINI">    350.00000000</i>
    <separator name="electronic convergence detail" >
     <i type="logical" name="LDIAG"> T  </i>
     <i type="logical" name="LSUBROT"> F  </i>
     <i name="WEIMIN">      0.00100000</i>
     <i name="EBREAK">      0.00000278</i>
     <i name="DEPER">      0.30000000</i>
     <i type="int" name="NRMM">     4</i>
     <i name="TIME">      0.40000000</i>
    </separator>
   </separator>
   <separator name="electronic mixer" >
    <i name="AMIX">      0.40000000</i>
    <i name="BMIX">      1.00000000</i>
    <i name="AMIN">      0.10000000</i>
    <i name="AMIX_MAG">      1.60000000</i>
    <i name="BMIX_MAG">      1.00000000</i>
    <separator name="electronic mixer details" >
     <i type="int" name="IMIX">     4</i>
     <i type="int" name="MAXMIX">   -45</i>
     <i name="WC">    100.00000000</i>
     <i type="int" name="INIMIX">     1</i>
     <i type="int" name="MIXPRE">     1</i>
     <i type="int" name="MREMOVE">     5</i>
    </separator>
   </separator>
   <separator name="electronic dipolcorrection" >
    <i type="logical" name="LDIPOL"> F  </i>
    <i type="logical" name="LMONO"> F  </i>
    <i type="int" name="IDIPOL">     0</i>
    <i name="EPSILON">      1.00000000</i>
    <v name="DIPOL">   -100.00000000   -100.00000000   -100.00000000</v>
    <i name="EFIELD">      0.00000000</i>
   </separator>
  </separator>
  <separator name="grids" >
   <i type="int" name="NGX">    14</i>
   <i type="int" name="NGY">    14</i>
   <i type="int" name="NGZ">    14</i>
   <i type="int" name="NGXF">    28</i>
   <i type="int" name="NGYF">    28</i>
   <i type="int" name="NGZF">    28</i>
   <i type="logical" name="ADDGRID"> F  </i>
  </separator>
  <separator name="ionic" >
   <i type="int" name="NSW">    30</i>
   <i type="int" name="IBRION">     2</i>
   <i type="int" name="ISIF">     2</i>
   <i name="PSTRESS">      0.00000000</i>
   <i name="EDIFFG">      0.00100000</i>
   <i type="int" name="NFREE">     1</i>
   <i name="POTIM">      0.50000000</i>
   <i name="SMASS">     -3.00000000</i>
   <i name="SCALEE">      1.00000000</i>
  </separator>
  <separator name="ionic md" >
   <i name="TEBEG">      0.00010000</i>
   <i name="TEEND">      0.00010000</i>
   <i type="int" name="NBLOCK">     1</i>
   <i type="int" name="KBLOCK">    30</i>
   <i type="int" name="NPACO">   256</i>
   <i name="APACO">     16.00000000</i>
  </separator>
  <separator name="symmetry" >
   <i type="int" name="ISYM">     2</i>
   <i name="SYMPREC">      0.00001000</i>
  </separator>
  <separator name="dos" >
   <i type="logical" name="LORBIT"> F  </i>
   <v name="RWIGS">     -1.00000000</v>
   <i type="int" name="NEDOS">   301</i>
   <i name="EMIN">     10.00000000</i>
   <i name="EMAX">    -10.00000000</i>
   <i name="EFERMI">      0.00000000</i>
  </separator>
  <separator name="writing" >
   <i type="int" name="NWRITE">     2</i>
   <i type="logical" name="LWAVE"> T  </i>
   <i type="logical" name="LCHARG"> T  </i>
   <i type="logical" name="LPARD"> F  </i>
   <i type="logical" name="LVTOT"> F  </i>
   <i type="logical" name="LVHAR"> F  </i>
   <i type="logical" name="LELF"> F  </i>
   <i type="logical" name="LOPTICS"> F  </i>
   <v name="STM">      0.00000000      0.00000000      0.00000000      0.00000000      0.00000000      0.00000000      0.00000000</v>
  </separator>
  <separator name="performance" >
   <i type="int" name="NPAR">     1</i>
   <i type="int" name="NSIM">     4</i>
   <i type="int" name="NBLK">    -1</i>
   <i type="logical" name="LPLANE"> T  </i>
   <i type="logical" name="LSCALAPACK"> F  </i>
   <i type="logical" name="LSCAAWARE"> F  </i>
   <i type="logical" name="LSCALU"> F  </i>
   <i type="logical" name="LASYNC"> F  </i>
   <i type="logical" name="LORBITALREAL"> F  </i>
  </separator>
  <separator name="miscellaneous" >
   <i type="int" name="IDIOT">     3</i>
   <i type="logical" name="LMUSIC"> F  </i>
   <v name="POMASS">    107.86800000</v>
   <v name="DARWINR">      0.00000000</v>
   <v name="DARWINV">      1.00000000</v>
   <i type="logical" name="LCORR"> T  </i>
  </separator>
  <i type="logical" name="GGA_COMPAT"> T  </i>
  <i type="logical" name="LBERRY"> F  </i>
  <i type="int" name="ICORELEVEL">     0</i>
  <i type="logical" name="LDAU"> F  </i>
  <i type="int" name="I_CONSTRAINED_M">     0</i>
  <separator name="electronic exchange-correlation" >
   <i type="string" name="GGA">--</i>
   <i type="int" name="VOSKOWN">     0</i>
   <i type="logical" name="LHFCALC"> F  </i>
   <i type="string" name="PRECFOCK"></i>
   <i type="logical" name="LSYMGRAD"> F  </i>
   <i type="logical" name="LHFONE"> F  </i>
   <i type="logical" name="LRHFCALC"> F  </i>
   <i type="logical" name="LTHOMAS"> F  </i>
   <i type="logical" name="LMODELHF"> F  </i>
   <i name="ENCUT4O">     -1.00000000</i>
   <i type="int" name="EXXOEP">     0</i>
   <i type="int" name="FOURORBIT">     0</i>
   <i name="AEXX">      0.00000000</i>
   <i name="HFALPHA">      0.00000000</i>
   <i name="MCALPHA">      0.00000000</i>
   <i name="ALDAX">      1.00000000</i>
   <i name="AGGAX">      1.00000000</i>
   <i name="ALDAC">      1.00000000</i>
   <i name="AGGAC">      1.00000000</i>
   <i type="int" name="NKREDX">     1</i>
   <i type="int" name="NKREDY">     1</i>
   <i type="int" name="NKREDZ">     1</i>
   <i type="logical" name="SHIFTRED"> F  </i>
   <i type="logical" name="ODDONLY"> F  </i>
   <i type="logical" name="EVENONLY"> F  </i>
   <i type="int" name="LMAXFOCK">     0</i>
   <i type="int" name="NMAXFOCKAE">     0</i>
   <i type="logical" name="LFOCKAEDFT"> F  </i>
   <i name="HFSCREEN">      0.00000000</i>
   <i name="HFSCREENC">      0.00000000</i>
   <i type="int" name="NBANDSGWLOW">     0</i>
  </separator>
  <separator name="vdW DFT" >
   <i type="logical" name="LUSE_VDW"> F  </i>
   <i name="Zab_VDW">     -0.84910000</i>
   <i name="PARAM1">      0.12340000</i>
   <i name="PARAM2">      1.00000000</i>
   <i name="PARAM3">      0.00000000</i>
  </separator>
  <separator name="model GW" >
   <i type="int" name="MODEL_GW">     0</i>
   <i name="MODEL_EPS0">     11.54412979</i>
   <i name="MODEL_ALPHA">      1.00000000</i>
  </separator>
  <separator name="linear response parameters" >
   <i type="logical" name="LEPSILON"> F  </i>
   <i type="logical" name="LRPA"> F  </i>
   <i type="logical" name="LNABLA"> F  </i>
   <i type="logical" name="LVEL"> F  </i>
   <i type="int" name="KINTER">     0</i>
   <i name="CSHIFT">      0.10000000</i>
   <i name="OMEGAMAX">     -1.00000000</i>
   <i name="DEG_THRESHOLD">      0.00200000</i>
  </separator>
  <separator name="orbital magnetization" >
   <i type="logical" name="NUCIND"> F  </i>
   <v name="MAGPOS">      0.00000000      0.00000000      0.00000000</v>
   <i type="logical" name="LNICSALL"> T  </i>
   <i type="logical" name="ORBITALMAG"> F  </i>
   <i type="logical" name="LMAGBLOCH"> F  </i>
   <i type="logical" name="LCHIMAG"> F  </i>
   <i type="logical" name="LGAUGE"> T  </i>
   <i type="int" name="MAGATOM">     0</i>
   <v name="MAGDIPOL">      0.00000000      0.00000000      0.00000000</v>
   <v name="AVECCONST">      0.00000000      0.00000000      0.00000000</v>
  </separator>
  <separator name="response functions" >
   <i type="logical" name="LADDER"> F  </i>
   <i type="logical" name="LFXC"> F  </i>
   <i type="logical" name="LHARTREE"> T  </i>
   <i type="int" name="IBSE">     0</i>
   <i type="logical" name="LTCTE"> F  </i>
   <i type="logical" name="LTETE"> F  </i>
   <i type="logical" name="LTRIPLET"> F  </i>
   <i type="logical" name="LFXCEPS"> F  </i>
   <i type="logical" name="LFXHEG"> F  </i>
   <i type="logical" name="L2ORDER"> F  </i>
   <i type="logical" name="LUSEW"> F  </i>
   <i name="ENCUTGW">     -2.00000000</i>
   <i name="ENCUTGWSOFT">     -2.00000000</i>
   <i name="ENCUTLF">     -1.00000000</i>
   <i type="int" name="LMAXMP2">    -1</i>
   <i name="SCISSOR">      0.00000000</i>
   <i type="int" name="NOMEGA">     0</i>
   <i type="int" name="NOMEGAR">     0</i>
   <i type="int" name="NBANDSGW">    -1</i>
   <i type="int" name="NBANDSO">    -1</i>
   <i type="int" name="NBANDSV">    -1</i>
   <i type="int" name="NELM">     1</i>
   <i type="int" name="DIM">     3</i>
   <i type="int" name="ANTIRES">     0</i>
   <i name="OMEGAMAX">    -30.00000000</i>
   <i name="OMEGAMIN">    -30.00000000</i>
   <i name="OMEGATL">   -200.00000000</i>
   <i type="int" name="OMEGAGRID">     0</i>
   <i name="CSHIFT">     -0.10000000</i>
   <i type="logical" name="SELFENERGY"> F  </i>
   <i type="logical" name="LSPECTRAL"> F  </i>
   <i type="logical" name="ODDONLYGW"> F  </i>
   <i type="logical" name="EVENONLYGW"> F  </i>
   <i type="int" name="NKREDLFX">     1</i>
   <i type="int" name="NKREDLFY">     1</i>
   <i type="int" name="NKREDLFZ">     1</i>
   <i type="int" name="MAXMEM">  1800</i>
   <i type="int" name="TELESCOPE">     0</i>
   <i type="int" name="TAUPAR">     1</i>
  </separator>
  <separator name="External order field" >
   <i name="OFIELD_KAPPA">      0.00000000</i>
   <v name="OFIELD_K">      0.00000000      0.00000000      0.00000000</v>
   <i name="OFIELD_Q6_NEAR">      0.00000000</i>
   <i name="OFIELD_Q6_FAR">      0.00000000</i>
   <i name="OFIELD_A">      0.00000000</i>
  </separator>
 </parameters>
 <atominfo>
  <atoms>       1 </atoms>
  <types>       1 </types>
  <array name="atoms" >
   <dimension dim="1">ion</dimension>
   <field type="string">element</field>
   <field type="int">atomtype</field>
   <set>
    <rc><c>Ag</c><c>   1</c></rc>
   </set>
  </array>
  <array name="atomtypes" >
   <dimension dim="1">type</dimension>
   <field type="int">atomspertype</field>
   <field type="string">element</field>
   <field>mass</field>
   <field>valence</field>
   <field type="string">pseudopotential</field>
   <set>
    <rc><c>   1</c><c>Ag</c><c>    107.86800000</c><c>     11.00000000</c><c>  PAW_PBE Ag 02Apr2005                  </c></rc>
   </set>
  </array>
 </atominfo>
 <structure name="initialpos" >
  <crystal>
   <varray name="basis" >
    <v>       3.00774940       0.00000000       0.00000000 </v>
    <v>       1.50387470       2.60478739       0.00000000 </v>
    <v>       1.50387470       0.86826246       2.45581711 </v>
   </varray>
   <i name="volume">     19.24021632 </i>
   <varray name="rec_basis" >
    <v>       0.33247451      -0.19195425      -0.13573215 </v>
    <v>       0.00000000       0.38390849      -0.13573215 </v>
    <v>       0.00000000       0.00000000       0.40719645 </v>
   </varray>
  </crystal>
  <varray name="positions" >
   <v>       0.00000000       0.00000000       0.00000000 </v>
  </varray>
 </structure>
 <calculation>
  <scstep>
   <time name="dav">    0.76    0.76</time>
   <time name="total">    0.79    0.83</time>
   <energy>
    <i name="alphaZ">     44.20834230 </i>
    <i name="ewald">   -939.03347796 </i>
    <i name="hartreedc">   -221.36364911 </i>
    <i name="XCdc">    -10.72140255 </i>
    <i name="pawpsdc">   1003.46214933 </i>
    <i name="pawaedc">   -957.34927423 </i>
    <i name="eentropy">     -0.00132651 </i>
    <i name="bandstr">     71.38287042 </i>
    <i name="atom">   1037.24027811 </i>
    <i name="e_fr_energy">     27.82450978 </i>
    <i name="e_wo_entrp">     27.82583629 </i>
    <i name="e_0_energy">     27.82495195 </i>
   </energy>
  </scstep>
  <scstep>
   <time name="dav">    0.72    0.72</time>
   <time name="total">    0.72    0.73</time>
   <energy>
    <i name="e_fr_energy">     -2.69797440 </i>
    <i name="e_wo_entrp">     -2.69773842 </i>
    <i name="e_0_energy">     -2.69789574 </i>
   </energy>
  </scstep>
  <scstep>
   <time name="dav">    1.15    1.15</time>
   <time name="total">    1.16    1.23</time>
   <energy>
    <i name="e_fr_energy">     -2.90672374 </i>
    <i name="e_wo_entrp">     -2.90650137 </i>
    <i name="e_0_energy">     -2.90664962 </i>
   </energy>
  </scstep>
  <scstep>
   <time name="dav">    1.09    1.09</time>
   <time name="total">    1.09    1.11</time>
   <energy>
    <i name="e_fr_energy">     -2.90710208 </i>
    <i name="e_wo_entrp">     -2.90687936 </i>
    <i name="e_0_energy">     -2.90702784 </i>
   </energy>
  </scstep>
  <scstep>
   <time name="dav">    0.92    0.92</time>
   <time name="total">    1.00    1.03</time>
   <energy>
    <i name="e_fr_energy">     -2.90710473 </i>
    <i name="e_wo_entrp">     -2.90688200 </i>
    <i name="e_0_energy">     -2.90703049 </i>
   </energy>
  </scstep>
  <scstep>
   <time name="dav">    0.91    0.91</time>
   <time name="total">    1.02    1.03</time>
   <energy>
    <i name="e_fr_energy">     -2.69944193 </i>
    <i name="e_wo_entrp">     -2.69923109 </i>
    <i name="e_0_energy">     -2.69937165 </i>
   </energy>
  </scstep>
  <scstep>
   <time name="dav">    0.93    0.93</time>
   <time name="total">    1.04    1.15</time>
   <energy>
    <i name="e_fr_energy">     -2.69514164 </i>
    <i name="e_wo_entrp">     -2.69499375 </i>
    <i name="e_0_energy">     -2.69509235 </i>
   </energy>
  </scstep>
  <scstep>
   <time name="dav">    0.73    0.73</time>
   <time name="total">    0.84    0.90</time>
   <energy>
    <i name="e_fr_energy">     -2.69320342 </i>
    <i name="e_wo_entrp">     -2.69307949 </i>
    <i name="e_0_energy">     -2.69316211 </i>
   </energy>
  </scstep>
  <scstep>
   <time name="dav">    0.57    0.57</time>
   <time name="total">    0.62    0.63</time>
   <energy>
    <i name="alphaZ">     44.20834230 </i>
    <i name="ewald">   -939.03347796 </i>
    <i name="hartreedc">   -209.70739583 </i>
    <i name="XCdc">    -11.15538186 </i>
    <i name="pawpsdc">   1078.45992538 </i>
    <i name="pawaedc">  -1034.35593290 </i>
    <i name="eentropy">     -0.00012563 </i>
    <i name="bandstr">     31.65055163 </i>
    <i name="atom">   1037.24027811 </i>
    <i name="e_fr_energy">     -2.69321675 </i>
    <i name="e_wo_entrp">     -2.69309112 </i>
    <i name="e_0_energy">     -2.69317488 </i>
   </energy>
  </scstep>
  <structure>
   <crystal>
    <varray name="basis" >
     <v>       3.00774940       0.00000000       0.00000000 </v>
     <v>       1.50387470       2.60478739       0.00000000 </v>
     <v>       1.50387470       0.86826246       2.45581711 </v>
    </varray>
    <i name="volume">     19.24021632 </i>
    <varray name="rec_basis" >
     <v>       0.33247451      -0.19195425      -0.13573215 </v>
     <v>       0.00000000       0.38390849      -0.13573215 </v>
     <v>       0.00000000       0.00000000       0.40719645 </v>
    </varray>
   </crystal>
   <varray name="positions" >
    <v>       0.00000000       0.00000000       0.00000000 </v>
   </varray>
  </structure>
  <varray name="forces" >
   <v>       0.00000000       0.00000000       0.00000000 </v>
  </varray>
  <varray name="stress" >
   <v>     -63.40799973       0.00000000       0.00000000 </v>
   <v>       0.00000000     -63.40799973       0.00000000 </v>
   <v>       0.00000000       0.00000000     -63.40799973 </v>
  </varray>
  <energy>
   <i name="e_fr_energy">     -2.69321675 </i>
   <i name="e_wo_entrp">     -2.69317488 </i>
   <i name="e_0_energy">     -0.00012563 </i>
  </energy>
  <time name="totalsc">    9.08    9.48</time>
  <eigenvalues>
   <array>
    <dimension dim="1">band</dimension>
    <dimension dim="2">kpoint</dimension>
    <dimension dim="3">spin</dimension>
    <field>eigene</field>
    <field>occ</field>
    <set>
     <set comment="spin 1">
      <set comment="kpoint 1">
       <r>    0.0490    1.0000 </r>
       <r>    2.4409    1.0000 </r>
       <r>    2.4907    1.0000 </r>
       <r>    2.4907    1.0000 </r>
       <r>    3.2863    1.0000 </r>
       <r>    3.2863    1.0000 </r>
       <r>   22.5386    0.0000 </r>
       <r>   24.4309    0.0000 </r>
       <r>   25.4390    0.0000 </r>
      </set>
      <set comment="kpoint 2">
       <r>    0.6002    1.0000 </r>
       <r>    2.3378    1.0000 </r>
       <r>    2.6087    1.0000 </r>
       <r>    2.6325    1.0000 </r>
       <r>    3.1834    1.0000 </r>
       <r>    3.3601    1.0000 </r>
       <r>   21.0293    0.0000 </r>
       <r>   22.5889    0.0000 </r>
       <r>   24.6971    0.0000 </r>
      </set>
      <set comment="kpoint 3">
       <r>    1.3220    1.0000 </r>
       <r>    2.5663    1.0000 </r>
       <r>    2.6548    1.0000 </r>
       <r>    2.8361    1.0000 </r>
       <r>    3.3265    1.0000 </r>
       <r>    3.7566    1.0000 </r>
       <r>   16.4199    0.0000 </r>
       <r>   22.0183    0.0000 </r>
       <r>   24.0648    0.0000 </r>
      </set>
      <set comment="kpoint 4">
       <r>    1.2855    1.0000 </r>
       <r>    2.4734    1.0000 </r>
       <r>    2.5321    1.0000 </r>
       <r>    3.6606    1.0000 </r>
       <r>    3.7308    1.0000 </r>
       <r>    5.4259    1.0000 </r>
       <r>   12.0821    0.0000 </r>
       <r>   21.5992    0.0000 </r>
       <r>   22.9439    0.0000 </r>
      </set>
      <set comment="kpoint 5">
       <r>    1.2307    1.0000 </r>
       <r>    2.4161    1.0000 </r>
       <r>    2.4984    1.0000 </r>
       <r>    3.7541    1.0000 </r>
       <r>    3.9440    1.0000 </r>
       <r>    6.9306    0.2264 </r>
       <r>   10.0074    0.0000 </r>
       <r>   21.6372    0.0000 </r>
       <r>   22.9013    0.0000 </r>
      </set>
      <set comment="kpoint 6">
       <r>    1.3198    1.0000 </r>
       <r>    2.5016    1.0000 </r>
       <r>    2.5892    1.0000 </r>
       <r>    3.3412    1.0000 </r>
       <r>    3.7917    1.0000 </r>
       <r>    4.6164    1.0000 </r>
       <r>   13.4435    0.0000 </r>
       <r>   22.1706    0.0000 </r>
       <r>   22.9777    0.0000 </r>
      </set>
      <set comment="kpoint 7">
       <r>    1.1724    1.0000 </r>
       <r>    2.4317    1.0000 </r>
       <r>    2.6740    1.0000 </r>
       <r>    2.6811    1.0000 </r>
       <r>    3.3363    1.0000 </r>
       <r>    3.4704    1.0000 </r>
       <r>   17.9696    0.0000 </r>
       <r>   22.8957    0.0000 </r>
       <r>   23.6294    0.0000 </r>
      </set>
      <set comment="kpoint 8">
       <r>    0.3358    1.0000 </r>
       <r>    2.3543    1.0000 </r>
       <r>    2.5773    1.0000 </r>
       <r>    2.5787    1.0000 </r>
       <r>    3.1973    1.0000 </r>
       <r>    3.3368    1.0000 </r>
       <r>   22.2169    0.0000 </r>
       <r>   23.4159    0.0000 </r>
       <r>   24.4710    0.0000 </r>
      </set>
      <set comment="kpoint 9">
       <r>    0.8616    1.0000 </r>
       <r>    2.1820    1.0000 </r>
       <r>    2.7376    1.0000 </r>
       <r>    2.7499    1.0000 </r>
       <r>    3.1065    1.0000 </r>
       <r>    3.4311    1.0000 </r>
       <r>   21.2835    0.0000 </r>
       <r>   22.8872    0.0000 </r>
       <r>   22.9594    0.0000 </r>
      </set>
      <set comment="kpoint 10">
       <r>    1.5712    1.0000 </r>
       <r>    2.0620    1.0000 </r>
       <r>    2.6480    1.0000 </r>
       <r>    2.9610    1.0000 </r>
       <r>    3.3805    1.0000 </r>
       <r>    3.8500    1.0000 </r>
       <r>   18.3885    0.0000 </r>
       <r>   20.3032    0.0000 </r>
       <r>   23.1208    0.0000 </r>
      </set>
      <set comment="kpoint 11">
       <r>    1.5882    1.0000 </r>
       <r>    2.3680    1.0000 </r>
       <r>    2.6599    1.0000 </r>
       <r>    2.9130    1.0000 </r>
       <r>    3.8030    1.0000 </r>
       <r>    5.5373    1.0000 </r>
       <r>   13.8660    0.0000 </r>
       <r>   19.8878    0.0000 </r>
       <r>   21.0686    0.0000 </r>
      </set>
      <set comment="kpoint 12">
       <r>    1.5211    1.0000 </r>
       <r>    2.2476    1.0000 </r>
       <r>    2.7623    1.0000 </r>
       <r>    3.1390    1.0000 </r>
       <r>    3.9133    1.0000 </r>
       <r>    8.0942    0.0000 </r>
       <r>   10.2350    0.0000 </r>
       <r>   19.5001    0.0000 </r>
       <r>   20.3265    0.0000 </r>
      </set>
      <set comment="kpoint 13">
       <r>    1.6078    1.0000 </r>
       <r>    2.3147    1.0000 </r>
       <r>    2.7603    1.0000 </r>
       <r>    3.0152    1.0000 </r>
       <r>    3.6892    1.0000 </r>
       <r>    6.4244    1.0042 </r>
       <r>   12.5253    0.0000 </r>
       <r>   18.7592    0.0000 </r>
       <r>   21.6115    0.0000 </r>
      </set>
      <set comment="kpoint 14">
       <r>    1.7457    1.0000 </r>
       <r>    2.2291    1.0000 </r>
       <r>    2.5668    1.0000 </r>
       <r>    2.9440    1.0000 </r>
       <r>    3.2385    1.0000 </r>
       <r>    4.4364    1.0000 </r>
       <r>   16.8706    0.0000 </r>
       <r>   18.8993    0.0000 </r>
       <r>   23.4762    0.0000 </r>
      </set>
      <set comment="kpoint 15">
       <r>    1.0742    1.0000 </r>
       <r>    2.2250    1.0000 </r>
       <r>    2.6962    1.0000 </r>
       <r>    2.7471    1.0000 </r>
       <r>    3.1536    1.0000 </r>
       <r>    3.5208    1.0000 </r>
       <r>   19.6824    0.0000 </r>
       <r>   21.5082    0.0000 </r>
       <r>   24.3813    0.0000 </r>
      </set>
      <set comment="kpoint 16">
       <r>    1.6171    1.0000 </r>
       <r>    1.7399    1.0000 </r>
       <r>    3.1493    1.0000 </r>
       <r>    3.2734    1.0000 </r>
       <r>    3.6980    1.0000 </r>
       <r>    4.0700    1.0000 </r>
       <r>   18.7654    0.0000 </r>
       <r>   19.7997    0.0000 </r>
       <r>   20.4348    0.0000 </r>
      </set>
      <set comment="kpoint 17">
       <r>    1.5707    1.0000 </r>
       <r>    1.6981    1.0000 </r>
       <r>    3.0745    1.0000 </r>
       <r>    3.5142    1.0000 </r>
       <r>    3.8370    1.0000 </r>
       <r>    5.9159    1.0000 </r>
       <r>   16.1432    0.0000 </r>
       <r>   17.8098    0.0000 </r>
       <r>   18.1251    0.0000 </r>
      </set>
      <set comment="kpoint 18">
       <r>    1.5955    1.0000 </r>
       <r>    1.9645    1.0000 </r>
       <r>    2.8565    1.0000 </r>
       <r>    3.3126    1.0000 </r>
       <r>    3.9553    1.0000 </r>
       <r>    8.7432    0.0000 </r>
       <r>   12.1806    0.0000 </r>
       <r>   15.9453    0.0000 </r>
       <r>   18.3468    0.0000 </r>
      </set>
      <set comment="kpoint 19">
       <r>    1.8358    1.0000 </r>
       <r>    2.2405    1.0000 </r>
       <r>    2.5418    1.0000 </r>
       <r>    3.1729    1.0000 </r>
       <r>    3.7037    1.0000 </r>
       <r>    8.8568    0.0000 </r>
       <r>   12.3355    0.0000 </r>
       <r>   14.7266    0.0000 </r>
       <r>   19.6965    0.0000 </r>
      </set>
      <set comment="kpoint 20">
       <r>    1.9497    1.0000 </r>
       <r>    2.2418    1.0000 </r>
       <r>    2.5105    1.0000 </r>
       <r>    3.0697    1.0000 </r>
       <r>    3.4370    1.0000 </r>
       <r>    6.3111    1.0003 </r>
       <r>   14.4057    0.0000 </r>
       <r>   16.5165    0.0000 </r>
       <r>   21.5606    0.0000 </r>
      </set>
      <set comment="kpoint 21">
       <r>    1.4746    1.0000 </r>
       <r>    2.5096    1.0000 </r>
       <r>    2.6916    1.0000 </r>
       <r>    2.8451    1.0000 </r>
       <r>    3.5630    1.0000 </r>
       <r>    4.4166    1.0000 </r>
       <r>   15.0495    0.0000 </r>
       <r>   20.9370    0.0000 </r>
       <r>   23.1278    0.0000 </r>
      </set>
      <set comment="kpoint 22">
       <r>    1.3059    1.0000 </r>
       <r>    1.3781    1.0000 </r>
       <r>    3.7680    1.0000 </r>
       <r>    3.8165    1.0000 </r>
       <r>    3.9778    1.0000 </r>
       <r>    6.9656    0.1190 </r>
       <r>   15.0615    0.0000 </r>
       <r>   16.8313    0.0000 </r>
       <r>   17.5958    0.0000 </r>
      </set>
      <set comment="kpoint 23">
       <r>    1.3239    1.0000 </r>
       <r>    1.4371    1.0000 </r>
       <r>    3.5881    1.0000 </r>
       <r>    3.7620    1.0000 </r>
       <r>    4.0686    1.0000 </r>
       <r>    9.0766    0.0000 </r>
       <r>   13.1537    0.0000 </r>
       <r>   15.1361    0.0000 </r>
       <r>   16.8046    0.0000 </r>
      </set>
      <set comment="kpoint 24">
       <r>    1.5505    1.0000 </r>
       <r>    1.8805    1.0000 </r>
       <r>    2.9716    1.0000 </r>
       <r>    3.4443    1.0000 </r>
       <r>    3.9348    1.0000 </r>
       <r>   10.5190    0.0000 </r>
       <r>   11.7941    0.0000 </r>
       <r>   13.7632    0.0000 </r>
       <r>   18.0072    0.0000 </r>
      </set>
      <set comment="kpoint 25">
       <r>    1.7214    1.0000 </r>
       <r>    2.1614    1.0000 </r>
       <r>    2.8342    1.0000 </r>
       <r>    2.9769    1.0000 </r>
       <r>    3.8316    1.0000 </r>
       <r>    8.9509    0.0000 </r>
       <r>   10.5776    0.0000 </r>
       <r>   17.0526    0.0000 </r>
       <r>   19.9061    0.0000 </r>
      </set>
      <set comment="kpoint 26">
       <r>    1.3595    1.0000 </r>
       <r>    2.3734    1.0000 </r>
       <r>    2.6026    1.0000 </r>
       <r>    3.4329    1.0000 </r>
       <r>    3.8828    1.0000 </r>
       <r>    6.6585    1.0267 </r>
       <r>   10.9848    0.0000 </r>
       <r>   20.8975    0.0000 </r>
       <r>   21.8078    0.0000 </r>
      </set>
      <set comment="kpoint 27">
       <r>    1.2003    1.0000 </r>
       <r>    1.2954    1.0000 </r>
       <r>    3.8672    1.0000 </r>
       <r>    3.9842    1.0000 </r>
       <r>    4.0778    1.0000 </r>
       <r>    8.4648    0.0000 </r>
       <r>   13.0847    0.0000 </r>
       <r>   16.3648    0.0000 </r>
       <r>   17.1060    0.0000 </r>
      </set>
      <set comment="kpoint 28">
       <r>    1.4213    1.0000 </r>
       <r>    1.5234    1.0000 </r>
       <r>    3.3719    1.0000 </r>
       <r>    3.7193    1.0000 </r>
       <r>    3.9692    1.0000 </r>
       <r>    7.5207    0.0000 </r>
       <r>   14.9781    0.0000 </r>
       <r>   15.7487    0.0000 </r>
       <r>   17.2361    0.0000 </r>
      </set>
      <set comment="kpoint 29">
       <r>    1.6265    1.0000 </r>
       <r>    2.1426    1.0000 </r>
       <r>    2.7182    1.0000 </r>
       <r>    3.1107    1.0000 </r>
       <r>    3.9269    1.0000 </r>
       <r>    7.0113    0.0243 </r>
       <r>   12.8928    0.0000 </r>
       <r>   18.4699    0.0000 </r>
       <r>   19.0059    0.0000 </r>
      </set>
      <set comment="kpoint 30">
       <r>    1.4780    1.0000 </r>
       <r>    1.5360    1.0000 </r>
       <r>    3.5201    1.0000 </r>
       <r>    3.5552    1.0000 </r>
       <r>    3.8410    1.0000 </r>
       <r>    5.3603    1.0000 </r>
       <r>   17.4788    0.0000 </r>
       <r>   17.8441    0.0000 </r>
       <r>   18.5222    0.0000 </r>
      </set>
      <set comment="kpoint 31">
       <r>    1.7047    1.0000 </r>
       <r>    1.9022    1.0000 </r>
       <r>    2.7648    1.0000 </r>
       <r>    3.2306    1.0000 </r>
       <r>    3.6557    1.0000 </r>
       <r>    4.6276    1.0000 </r>
       <r>   17.1960    0.0000 </r>
       <r>   19.0818    0.0000 </r>
       <r>   20.6047    0.0000 </r>
      </set>
      <set comment="kpoint 32">
       <r>    1.4320    1.0000 </r>
       <r>    1.9641    1.0000 </r>
       <r>    2.8548    1.0000 </r>
       <r>    2.9902    1.0000 </r>
       <r>    3.3267    1.0000 </r>
       <r>    3.5567    1.0000 </r>
       <r>   20.0369    0.0000 </r>
       <r>   21.3245    0.0000 </r>
       <r>   22.4896    0.0000 </r>
      </set>
      <set comment="kpoint 33">
       <r>    0.8161    1.0000 </r>
       <r>    2.4200    1.0000 </r>
       <r>    2.6227    1.0000 </r>
       <r>    2.6227    1.0000 </r>
       <r>    3.2935    1.0000 </r>
       <r>    3.2935    1.0000 </r>
       <r>   19.4483    0.0000 </r>
       <r>   23.2419    0.0000 </r>
       <r>   25.2876    0.0000 </r>
      </set>
      <set comment="kpoint 34">
       <r>    1.4238    1.0000 </r>
       <r>    2.2503    1.0000 </r>
       <r>    2.6983    1.0000 </r>
       <r>    2.7975    1.0000 </r>
       <r>    3.0889    1.0000 </r>
       <r>    3.8553    1.0000 </r>
       <r>   18.1990    0.0000 </r>
       <r>   20.1577    0.0000 </r>
       <r>   24.9336    0.0000 </r>
      </set>
      <set comment="kpoint 35">
       <r>    1.8652    1.0000 </r>
       <r>    2.2879    1.0000 </r>
       <r>    2.6669    1.0000 </r>
       <r>    2.9019    1.0000 </r>
       <r>    3.2275    1.0000 </r>
       <r>    5.2314    1.0000 </r>
       <r>   15.5409    0.0000 </r>
       <r>   17.6153    0.0000 </r>
       <r>   23.6322    0.0000 </r>
      </set>
      <set comment="kpoint 36">
       <r>    1.6481    1.0000 </r>
       <r>    2.2582    1.0000 </r>
       <r>    2.8190    1.0000 </r>
       <r>    3.0211    1.0000 </r>
       <r>    3.7120    1.0000 </r>
       <r>    7.5702    0.0000 </r>
       <r>   11.4161    0.0000 </r>
       <r>   17.7893    0.0000 </r>
       <r>   22.1653    0.0000 </r>
      </set>
      <set comment="kpoint 37">
       <r>    1.5496    1.0000 </r>
       <r>    2.2410    1.0000 </r>
       <r>    2.8666    1.0000 </r>
       <r>    2.9326    1.0000 </r>
       <r>    3.9676    1.0000 </r>
       <r>    7.5208    0.0000 </r>
       <r>   11.3340    0.0000 </r>
       <r>   18.8868    0.0000 </r>
       <r>   20.7238    0.0000 </r>
      </set>
      <set comment="kpoint 38">
       <r>    1.6084    1.0000 </r>
       <r>    2.1813    1.0000 </r>
       <r>    2.6871    1.0000 </r>
       <r>    2.9857    1.0000 </r>
       <r>    3.8426    1.0000 </r>
       <r>    4.9139    1.0000 </r>
       <r>   15.4333    0.0000 </r>
       <r>   20.4974    0.0000 </r>
       <r>   20.7343    0.0000 </r>
      </set>
      <set comment="kpoint 39">
       <r>    1.4967    1.0000 </r>
       <r>    2.3820    1.0000 </r>
       <r>    2.5891    1.0000 </r>
       <r>    2.8027    1.0000 </r>
       <r>    3.6669    1.0000 </r>
       <r>    3.8809    1.0000 </r>
       <r>   16.6262    0.0000 </r>
       <r>   21.9696    0.0000 </r>
       <r>   22.3894    0.0000 </r>
      </set>
      <set comment="kpoint 40">
       <r>    1.8429    1.0000 </r>
       <r>    2.1953    1.0000 </r>
       <r>    2.4231    1.0000 </r>
       <r>    3.1839    1.0000 </r>
       <r>    3.5157    1.0000 </r>
       <r>    5.3865    1.0000 </r>
       <r>   15.7095    0.0000 </r>
       <r>   17.7635    0.0000 </r>
       <r>   20.9684    0.0000 </r>
      </set>
      <set comment="kpoint 41">
       <r>    2.0128    1.0000 </r>
       <r>    2.0905    1.0000 </r>
       <r>    2.3942    1.0000 </r>
       <r>    3.2543    1.0000 </r>
       <r>    3.6892    1.0000 </r>
       <r>    7.7095    0.0000 </r>
       <r>   13.4725    0.0000 </r>
       <r>   15.6441    0.0000 </r>
       <r>   18.9606    0.0000 </r>
      </set>
      <set comment="kpoint 42">
       <r>    1.8269    1.0000 </r>
       <r>    2.0532    1.0000 </r>
       <r>    2.6151    1.0000 </r>
       <r>    3.1863    1.0000 </r>
       <r>    3.9026    1.0000 </r>
       <r>    9.6564    0.0000 </r>
       <r>   10.9325    0.0000 </r>
       <r>   16.4874    0.0000 </r>
       <r>   17.5575    0.0000 </r>
      </set>
      <set comment="kpoint 43">
       <r>    1.7612    1.0000 </r>
       <r>    1.9598    1.0000 </r>
       <r>    2.6151    1.0000 </r>
       <r>    3.4241    1.0000 </r>
       <r>    3.7429    1.0000 </r>
       <r>    6.7330    0.9383 </r>
       <r>   14.7387    0.0000 </r>
       <r>   16.7880    0.0000 </r>
       <r>   18.3619    0.0000 </r>
      </set>
      <set comment="kpoint 44">
       <r>    1.5517    1.0000 </r>
       <r>    1.9182    1.0000 </r>
       <r>    2.9648    1.0000 </r>
       <r>    3.2113    1.0000 </r>
       <r>    3.9636    1.0000 </r>
       <r>    6.3170    1.0004 </r>
       <r>   14.4243    0.0000 </r>
       <r>   18.1090    0.0000 </r>
       <r>   19.3088    0.0000 </r>
      </set>
      <set comment="kpoint 45">
       <r>    1.6392    1.0000 </r>
       <r>    1.7748    1.0000 </r>
       <r>    2.8602    1.0000 </r>
       <r>    3.5465    1.0000 </r>
       <r>    3.9345    1.0000 </r>
       <r>    8.3791    0.0000 </r>
       <r>   13.9890    0.0000 </r>
       <r>   15.5801    0.0000 </r>
       <r>   16.4022    0.0000 </r>
      </set>
      <set comment="kpoint 46">
       <r>    1.7656    1.0000 </r>
       <r>    2.0433    1.0000 </r>
       <r>    2.5073    1.0000 </r>
       <r>    3.3485    1.0000 </r>
       <r>    4.0647    1.0000 </r>
       <r>   11.2068    0.0000 </r>
       <r>   12.3895    0.0000 </r>
       <r>   13.8464    0.0000 </r>
       <r>   15.1341    0.0000 </r>
      </set>
      <set comment="kpoint 47">
       <r>    1.8814    1.0000 </r>
       <r>    2.0496    1.0000 </r>
       <r>    2.4334    1.0000 </r>
       <r>    3.3413    1.0000 </r>
       <r>    3.9186    1.0000 </r>
       <r>    9.3922    0.0000 </r>
       <r>   12.7805    0.0000 </r>
       <r>   14.9728    0.0000 </r>
       <r>   16.5254    0.0000 </r>
      </set>
      <set comment="kpoint 48">
       <r>    1.3821    1.0000 </r>
       <r>    1.6186    1.0000 </r>
       <r>    3.3953    1.0000 </r>
       <r>    3.6175    1.0000 </r>
       <r>    3.9871    1.0000 </r>
       <r>    9.6166    0.0000 </r>
       <r>   12.9735    0.0000 </r>
       <r>   13.7869    0.0000 </r>
       <r>   18.0401    0.0000 </r>
      </set>
      <set comment="kpoint 49">
       <r>    1.5452    1.0000 </r>
       <r>    1.6961    1.0000 </r>
       <r>    3.0463    1.0000 </r>
       <r>    3.5444    1.0000 </r>
       <r>    4.0656    1.0000 </r>
       <r>   10.0589    0.0000 </r>
       <r>   13.1880    0.0000 </r>
       <r>   14.0064    0.0000 </r>
       <r>   15.9153    0.0000 </r>
      </set>
      <set comment="kpoint 50">
       <r>    1.4529    1.0000 </r>
       <r>    1.7185    1.0000 </r>
       <r>    3.2333    1.0000 </r>
       <r>    3.4433    1.0000 </r>
       <r>    4.0081    1.0000 </r>
       <r>    7.9809    0.0000 </r>
       <r>   13.6480    0.0000 </r>
       <r>   15.5972    0.0000 </r>
       <r>   18.4726    0.0000 </r>
      </set>
      <set comment="kpoint 51">
       <r>    1.2788    1.0000 </r>
       <r>    2.5779    1.0000 </r>
       <r>    2.5779    1.0000 </r>
       <r>    3.5597    1.0000 </r>
       <r>    3.5780    1.0000 </r>
       <r>    3.5780    1.0000 </r>
       <r>   14.8280    0.0000 </r>
       <r>   22.5862    0.0000 </r>
       <r>   24.5157    0.0000 </r>
      </set>
      <set comment="kpoint 52">
       <r>    1.5146    1.0000 </r>
       <r>    2.4391    1.0000 </r>
       <r>    2.6868    1.0000 </r>
       <r>    3.1152    1.0000 </r>
       <r>    3.4918    1.0000 </r>
       <r>    5.2559    1.0000 </r>
       <r>   13.6811    0.0000 </r>
       <r>   19.7635    0.0000 </r>
       <r>   23.1956    0.0000 </r>
      </set>
      <set comment="kpoint 53">
       <r>    1.8977    1.0000 </r>
       <r>    2.2797    1.0000 </r>
       <r>    2.6181    1.0000 </r>
       <r>    3.0273    1.0000 </r>
       <r>    3.5159    1.0000 </r>
       <r>    7.4527   -0.0001 </r>
       <r>   13.2827    0.0000 </r>
       <r>   15.4855    0.0000 </r>
       <r>   21.9970    0.0000 </r>
      </set>
      <set comment="kpoint 54">
       <r>    1.6457    1.0000 </r>
       <r>    2.1208    1.0000 </r>
       <r>    2.7809    1.0000 </r>
       <r>    3.2872    1.0000 </r>
       <r>    3.7888    1.0000 </r>
       <r>   10.2122    0.0000 </r>
       <r>   11.3296    0.0000 </r>
       <r>   14.1033    0.0000 </r>
       <r>   19.7402    0.0000 </r>
      </set>
      <set comment="kpoint 55">
       <r>    1.4247    1.0000 </r>
       <r>    2.3812    1.0000 </r>
       <r>    2.6898    1.0000 </r>
       <r>    3.1103    1.0000 </r>
       <r>    3.9302    1.0000 </r>
       <r>    5.9414    1.0000 </r>
       <r>   12.2728    0.0000 </r>
       <r>   21.2165    0.0000 </r>
       <r>   21.7006    0.0000 </r>
      </set>
      <set comment="kpoint 56">
       <r>    1.7355    1.0000 </r>
       <r>    2.1520    1.0000 </r>
       <r>    2.7408    1.0000 </r>
       <r>    3.0274    1.0000 </r>
       <r>    3.8409    1.0000 </r>
       <r>    7.9100    0.0000 </r>
       <r>   11.5948    0.0000 </r>
       <r>   17.9458    0.0000 </r>
       <r>   19.1413    0.0000 </r>
      </set>
      <set comment="kpoint 57">
       <r>    1.7991    1.0000 </r>
       <r>    2.1070    1.0000 </r>
       <r>    2.5204    1.0000 </r>
       <r>    3.2947    1.0000 </r>
       <r>    3.9171    1.0000 </r>
       <r>   10.5262    0.0000 </r>
       <r>   11.6115    0.0000 </r>
       <r>   14.2330    0.0000 </r>
       <r>   17.2473    0.0000 </r>
      </set>
      <set comment="kpoint 58">
       <r>    1.6315    1.0000 </r>
       <r>    2.1442    1.0000 </r>
       <r>    2.8262    1.0000 </r>
       <r>    3.0888    1.0000 </r>
       <r>    3.9042    1.0000 </r>
       <r>    9.3056    0.0000 </r>
       <r>   10.6842    0.0000 </r>
       <r>   16.3824    0.0000 </r>
       <r>   20.0681    0.0000 </r>
      </set>
      <set comment="kpoint 59">
       <r>    1.1912    1.0000 </r>
       <r>    2.4665    1.0000 </r>
       <r>    2.4665    1.0000 </r>
       <r>    3.8917    1.0000 </r>
       <r>    3.8917    1.0000 </r>
       <r>    6.0075    1.0000 </r>
       <r>   10.8121    0.0000 </r>
       <r>   21.8994    0.0000 </r>
       <r>   23.6278    0.0000 </r>
      </set>
      <set comment="kpoint 60">
       <r>    1.3925    1.0000 </r>
       <r>    2.3341    1.0000 </r>
       <r>    2.6230    1.0000 </r>
       <r>    3.4273    1.0000 </r>
       <r>    3.8770    1.0000 </r>
       <r>    7.5727    0.0000 </r>
       <r>   10.1220    0.0000 </r>
       <r>   20.1003    0.0000 </r>
       <r>   22.4120    0.0000 </r>
      </set>
     </set>
    </set>
   </array>
  </eigenvalues>
  <separator name="orbital magnetization" >
   <v name="MAGDIPOLOUT">      0.00000000      0.00000000      0.00000000</v>
  </separator>
  <dos>
   <i name="efermi">      6.86158024 </i>
   <total>
    <array>
     <dimension dim="1">gridpoints</dimension>
     <dimension dim="2">spin</dimension>
     <field>energy</field>
     <field>total</field>
     <field>integrated</field>
     <set>
      <set comment="spin 1">
       <r>    -1.9510     0.0000     0.0000 </r>
       <r>    -1.8530     0.0000     0.0000 </r>
       <r>    -1.7551     0.0000     0.0000 </r>
       <r>    -1.6571     0.0000     0.0000 </r>
       <r>    -1.5591     0.0000     0.0000 </r>
       <r>    -1.4612     0.0000     0.0000 </r>
       <r>    -1.3632     0.0000     0.0000 </r>
       <r>    -1.2652     0.0000     0.0000 </r>
       <r>    -1.1673     0.0000     0.0000 </r>
       <r>    -1.0693     0.0000     0.0000 </r>
       <r>    -0.9713     0.0000     0.0000 </r>
       <r>    -0.8734     0.0000     0.0000 </r>
       <r>    -0.7754     0.0000     0.0000 </r>
       <r>    -0.6774     0.0000     0.0000 </r>
       <r>    -0.5795     0.0000     0.0000 </r>
       <r>    -0.4815     0.0000     0.0000 </r>
       <r>    -0.3835    -0.0003     0.0000 </r>
       <r>    -0.2856    -0.0012    -0.0002 </r>
       <r>    -0.1876    -0.0014    -0.0003 </r>
       <r>    -0.0896     0.0051     0.0002 </r>
       <r>     0.0083     0.0192     0.0021 </r>
       <r>     0.1063     0.0285     0.0049 </r>
       <r>     0.2043     0.0399     0.0088 </r>
       <r>     0.3022     0.0721     0.0159 </r>
       <r>     0.4002     0.0933     0.0250 </r>
       <r>     0.4982     0.0869     0.0335 </r>
       <r>     0.5961     0.0890     0.0422 </r>
       <r>     0.6941     0.0955     0.0516 </r>
       <r>     0.7921     0.1001     0.0614 </r>
       <r>     0.8900     0.1091     0.0721 </r>
       <r>     0.9880     0.1262     0.0844 </r>
       <r>     1.0860     0.2216     0.1062 </r>
       <r>     1.1839     0.5073     0.1559 </r>
       <r>     1.2819     1.0919     0.2628 </r>
       <r>     1.3799     1.9695     0.4558 </r>
       <r>     1.4778     2.9893     0.7486 </r>
       <r>     1.5758     3.8515     1.1259 </r>
       <r>     1.6738     4.1406     1.5316 </r>
       <r>     1.7717     3.8091     1.9047 </r>
       <r>     1.8697     3.2301     2.2212 </r>
       <r>     1.9677     2.7830     2.4938 </r>
       <r>     2.0656     2.7272     2.7610 </r>
       <r>     2.1636     2.9997     3.0549 </r>
       <r>     2.2616     3.1920     3.3676 </r>
       <r>     2.3595     3.1824     3.6794 </r>
       <r>     2.4575     3.3908     4.0115 </r>
       <r>     2.5555     4.0315     4.4065 </r>
       <r>     2.6534     4.6539     4.8624 </r>
       <r>     2.7514     4.6466     5.3176 </r>
       <r>     2.8494     4.0310     5.7125 </r>
       <r>     2.9473     3.4657     6.0521 </r>
       <r>     3.0453     3.3713     6.3823 </r>
       <r>     3.1433     3.5529     6.7304 </r>
       <r>     3.2412     3.7313     7.0960 </r>
       <r>     3.3392     3.8338     7.4715 </r>
       <r>     3.4372     3.7903     7.8429 </r>
       <r>     3.5351     3.5109     8.1868 </r>
       <r>     3.6331     3.2039     8.5007 </r>
       <r>     3.7311     3.4216     8.8359 </r>
       <r>     3.8290     4.2615     9.2534 </r>
       <r>     3.9270     4.7596     9.7197 </r>
       <r>     4.0250     3.8741    10.0992 </r>
       <r>     4.1229     2.0102    10.2961 </r>
       <r>     4.2209     0.5199    10.3471 </r>
       <r>     4.3189     0.0501    10.3520 </r>
       <r>     4.4168     0.2236    10.3739 </r>
       <r>     4.5148     0.4150    10.4145 </r>
       <r>     4.6128     0.4094    10.4546 </r>
       <r>     4.7107     0.2853    10.4826 </r>
       <r>     4.8087     0.1444    10.4967 </r>
       <r>     4.9067     0.0790    10.5045 </r>
       <r>     5.0046     0.0574    10.5101 </r>
       <r>     5.1026     0.0507    10.5151 </r>
       <r>     5.2006     0.1453    10.5293 </r>
       <r>     5.2985     0.3456    10.5632 </r>
       <r>     5.3965     0.5069    10.6128 </r>
       <r>     5.4945     0.4925    10.6611 </r>
       <r>     5.5924     0.3113    10.6916 </r>
       <r>     5.6904     0.1100    10.7023 </r>
       <r>     5.7884     0.0655    10.7087 </r>
       <r>     5.8863     0.2004    10.7284 </r>
       <r>     5.9843     0.2901    10.7568 </r>
       <r>     6.0823     0.1893    10.7754 </r>
       <r>     6.1802     0.1057    10.7857 </r>
       <r>     6.2782     0.2309    10.8083 </r>
       <r>     6.3762     0.3896    10.8465 </r>
       <r>     6.4741     0.3574    10.8815 </r>
       <r>     6.5721     0.2624    10.9072 </r>
       <r>     6.6701     0.2954    10.9362 </r>
       <r>     6.7680     0.3418    10.9696 </r>
       <r>     6.8660     0.3246    11.0014 </r>
       <r>     6.9640     0.3515    11.0359 </r>
       <r>     7.0619     0.3327    11.0685 </r>
       <r>     7.1599     0.1616    11.0843 </r>
       <r>     7.2579     0.0027    11.0846 </r>
       <r>     7.3558     0.0390    11.0884 </r>
       <r>     7.4538     0.2880    11.1166 </r>
       <r>     7.5518     0.5437    11.1699 </r>
       <r>     7.6497     0.5478    11.2236 </r>
       <r>     7.7477     0.3677    11.2596 </r>
       <r>     7.8457     0.2633    11.2854 </r>
       <r>     7.9436     0.3028    11.3150 </r>
       <r>     8.0416     0.3430    11.3486 </r>
       <r>     8.1396     0.2726    11.3753 </r>
       <r>     8.2375     0.1677    11.3918 </r>
       <r>     8.3355     0.1755    11.4090 </r>
       <r>     8.4335     0.2411    11.4326 </r>
       <r>     8.5314     0.1979    11.4520 </r>
       <r>     8.6294     0.1240    11.4641 </r>
       <r>     8.7274     0.1958    11.4833 </r>
       <r>     8.8253     0.3593    11.5185 </r>
       <r>     8.9233     0.4528    11.5629 </r>
       <r>     9.0213     0.4209    11.6041 </r>
       <r>     9.1192     0.2994    11.6334 </r>
       <r>     9.2172     0.1907    11.6521 </r>
       <r>     9.3152     0.1969    11.6714 </r>
       <r>     9.4131     0.2473    11.6956 </r>
       <r>     9.5111     0.2476    11.7199 </r>
       <r>     9.6091     0.2650    11.7458 </r>
       <r>     9.7070     0.2606    11.7714 </r>
       <r>     9.8050     0.1432    11.7854 </r>
       <r>     9.9030     0.0742    11.7927 </r>
       <r>    10.0009     0.2083    11.8131 </r>
       <r>    10.0989     0.4138    11.8536 </r>
       <r>    10.1969     0.4739    11.9000 </r>
       <r>    10.2948     0.3499    11.9343 </r>
       <r>    10.3928     0.2504    11.9588 </r>
       <r>    10.4908     0.3944    11.9975 </r>
       <r>    10.5887     0.5697    12.0533 </r>
       <r>    10.6867     0.4565    12.0980 </r>
       <r>    10.7847     0.2406    12.1216 </r>
       <r>    10.8826     0.2383    12.1449 </r>
       <r>    10.9806     0.3490    12.1791 </r>
       <r>    11.0786     0.3331    12.2117 </r>
       <r>    11.1765     0.2728    12.2385 </r>
       <r>    11.2745     0.3067    12.2685 </r>
       <r>    11.3725     0.3365    12.3015 </r>
       <r>    11.4704     0.3233    12.3332 </r>
       <r>    11.5684     0.3713    12.3695 </r>
       <r>    11.6664     0.4250    12.4112 </r>
       <r>    11.7643     0.3574    12.4462 </r>
       <r>    11.8623     0.2127    12.4670 </r>
       <r>    11.9603     0.0992    12.4767 </r>
       <r>    12.0582     0.1150    12.4880 </r>
       <r>    12.1562     0.2627    12.5138 </r>
       <r>    12.2542     0.4361    12.5565 </r>
       <r>    12.3521     0.5380    12.6092 </r>
       <r>    12.4501     0.5010    12.6583 </r>
       <r>    12.5481     0.3412    12.6917 </r>
       <r>    12.6460     0.1921    12.7105 </r>
       <r>    12.7440     0.1924    12.7294 </r>
       <r>    12.8420     0.3064    12.7594 </r>
       <r>    12.9399     0.3712    12.7957 </r>
       <r>    13.0379     0.3901    12.8340 </r>
       <r>    13.1359     0.4647    12.8795 </r>
       <r>    13.2338     0.4900    12.9275 </r>
       <r>    13.3318     0.3815    12.9649 </r>
       <r>    13.4298     0.2967    12.9939 </r>
       <r>    13.5277     0.2867    13.0220 </r>
       <r>    13.6257     0.3171    13.0531 </r>
       <r>    13.7237     0.4733    13.0994 </r>
       <r>    13.8216     0.6952    13.1675 </r>
       <r>    13.9196     0.7761    13.2436 </r>
       <r>    14.0176     0.6677    13.3090 </r>
       <r>    14.1155     0.4725    13.3553 </r>
       <r>    14.2135     0.3261    13.3872 </r>
       <r>    14.3115     0.3020    13.4168 </r>
       <r>    14.4094     0.3182    13.4480 </r>
       <r>    14.5074     0.2504    13.4725 </r>
       <r>    14.6054     0.1863    13.4908 </r>
       <r>    14.7033     0.2759    13.5178 </r>
       <r>    14.8013     0.3855    13.5556 </r>
       <r>    14.8993     0.4643    13.6010 </r>
       <r>    14.9972     0.6807    13.6677 </r>
       <r>    15.0952     0.8550    13.7515 </r>
       <r>    15.1932     0.6645    13.8166 </r>
       <r>    15.2911     0.2740    13.8434 </r>
       <r>    15.3891     0.1202    13.8552 </r>
       <r>    15.4871     0.3297    13.8875 </r>
       <r>    15.5850     0.6631    13.9525 </r>
       <r>    15.6830     0.8140    14.0322 </r>
       <r>    15.7810     0.7008    14.1009 </r>
       <r>    15.8789     0.5264    14.1524 </r>
       <r>    15.9769     0.4231    14.1939 </r>
       <r>    16.0749     0.3156    14.2248 </r>
       <r>    16.1728     0.2085    14.2452 </r>
       <r>    16.2708     0.2345    14.2682 </r>
       <r>    16.3688     0.5112    14.3183 </r>
       <r>    16.4667     0.8496    14.4015 </r>
       <r>    16.5647     0.8504    14.4848 </r>
       <r>    16.6627     0.5879    14.5424 </r>
       <r>    16.7606     0.5166    14.5930 </r>
       <r>    16.8586     0.6056    14.6524 </r>
       <r>    16.9566     0.5273    14.7040 </r>
       <r>    17.0545     0.4331    14.7464 </r>
       <r>    17.1525     0.5518    14.8005 </r>
       <r>    17.2505     0.6468    14.8639 </r>
       <r>    17.3484     0.4761    14.9105 </r>
       <r>    17.4464     0.2839    14.9383 </r>
       <r>    17.5444     0.3310    14.9708 </r>
       <r>    17.6423     0.4658    15.0164 </r>
       <r>    17.7403     0.5707    15.0723 </r>
       <r>    17.8383     0.6855    15.1395 </r>
       <r>    17.9362     0.7681    15.2147 </r>
       <r>    18.0342     0.7719    15.2903 </r>
       <r>    18.1322     0.6601    15.3550 </r>
       <r>    18.2301     0.5323    15.4071 </r>
       <r>    18.3281     0.6176    15.4677 </r>
       <r>    18.4261     0.7937    15.5454 </r>
       <r>    18.5240     0.6828    15.6123 </r>
       <r>    18.6220     0.3635    15.6479 </r>
       <r>    18.7200     0.2500    15.6724 </r>
       <r>    18.8179     0.4268    15.7142 </r>
       <r>    18.9159     0.6708    15.7799 </r>
       <r>    19.0139     0.7906    15.8574 </r>
       <r>    19.1118     0.6966    15.9256 </r>
       <r>    19.2098     0.4432    15.9690 </r>
       <r>    19.3078     0.2174    15.9903 </r>
       <r>    19.4057     0.1528    16.0053 </r>
       <r>    19.5037     0.2183    16.0267 </r>
       <r>    19.6017     0.3685    16.0628 </r>
       <r>    19.6996     0.5908    16.1207 </r>
       <r>    19.7976     0.7406    16.1932 </r>
       <r>    19.8956     0.7011    16.2619 </r>
       <r>    19.9935     0.5615    16.3169 </r>
       <r>    20.0915     0.4442    16.3604 </r>
       <r>    20.1895     0.4005    16.3997 </r>
       <r>    20.2874     0.4386    16.4426 </r>
       <r>    20.3854     0.4696    16.4887 </r>
       <r>    20.4834     0.4121    16.5290 </r>
       <r>    20.5813     0.3477    16.5631 </r>
       <r>    20.6793     0.3258    16.5950 </r>
       <r>    20.7773     0.3471    16.6290 </r>
       <r>    20.8752     0.4977    16.6778 </r>
       <r>    20.9732     0.7006    16.7464 </r>
       <r>    21.0712     0.6796    16.8130 </r>
       <r>    21.1691     0.4519    16.8572 </r>
       <r>    21.2671     0.2796    16.8846 </r>
       <r>    21.3651     0.2422    16.9083 </r>
       <r>    21.4630     0.3658    16.9442 </r>
       <r>    21.5610     0.6342    17.0063 </r>
       <r>    21.6590     0.7529    17.0801 </r>
       <r>    21.7569     0.5806    17.1370 </r>
       <r>    21.8549     0.3824    17.1744 </r>
       <r>    21.9529     0.3396    17.2077 </r>
       <r>    22.0508     0.3699    17.2439 </r>
       <r>    22.1488     0.3709    17.2803 </r>
       <r>    22.2468     0.3267    17.3123 </r>
       <r>    22.3447     0.2889    17.3406 </r>
       <r>    22.4427     0.3130    17.3712 </r>
       <r>    22.5407     0.3217    17.4028 </r>
       <r>    22.6386     0.2206    17.4244 </r>
       <r>    22.7366     0.1216    17.4363 </r>
       <r>    22.8346     0.2352    17.4593 </r>
       <r>    22.9325     0.5018    17.5085 </r>
       <r>    23.0305     0.6522    17.5724 </r>
       <r>    23.1285     0.6247    17.6336 </r>
       <r>    23.2264     0.4701    17.6796 </r>
       <r>    23.3244     0.2803    17.7071 </r>
       <r>    23.4224     0.2424    17.7309 </r>
       <r>    23.5203     0.3283    17.7630 </r>
       <r>    23.6183     0.3486    17.7972 </r>
       <r>    23.7163     0.2405    17.8207 </r>
       <r>    23.8142     0.0862    17.8292 </r>
       <r>    23.9122     0.0128    17.8304 </r>
       <r>    24.0102     0.0423    17.8346 </r>
       <r>    24.1081     0.0761    17.8420 </r>
       <r>    24.2061     0.0718    17.8491 </r>
       <r>    24.3041     0.1301    17.8618 </r>
       <r>    24.4020     0.2660    17.8879 </r>
       <r>    24.5000     0.3075    17.9180 </r>
       <r>    24.5980     0.2112    17.9387 </r>
       <r>    24.6959     0.1212    17.9506 </r>
       <r>    24.7939     0.0945    17.9598 </r>
       <r>    24.8919     0.0974    17.9694 </r>
       <r>    24.9899     0.0931    17.9785 </r>
       <r>    25.0878     0.0549    17.9839 </r>
       <r>    25.1858     0.0212    17.9859 </r>
       <r>    25.2838     0.0279    17.9887 </r>
       <r>    25.3817     0.0464    17.9932 </r>
       <r>    25.4797     0.0445    17.9976 </r>
       <r>    25.5777     0.0237    17.9999 </r>
       <r>    25.6756     0.0046    18.0004 </r>
       <r>    25.7736    -0.0019    18.0002 </r>
       <r>    25.8716    -0.0013    18.0000 </r>
       <r>    25.9695    -0.0003    18.0000 </r>
       <r>    26.0675     0.0000    18.0000 </r>
       <r>    26.1655     0.0000    18.0000 </r>
       <r>    26.2634     0.0000    18.0000 </r>
       <r>    26.3614     0.0000    18.0000 </r>
       <r>    26.4594     0.0000    18.0000 </r>
       <r>    26.5573     0.0000    18.0000 </r>
       <r>    26.6553     0.0000    18.0000 </r>
       <r>    26.7533     0.0000    18.0000 </r>
       <r>    26.8512     0.0000    18.0000 </r>
       <r>    26.9492     0.0000    18.0000 </r>
       <r>    27.0472     0.0000    18.0000 </r>
       <r>    27.1451     0.0000    18.0000 </r>
       <r>    27.2431     0.0000    18.0000 </r>
       <r>    27.3411     0.0000    18.0000 </r>
       <r>    27.4390     0.0000    18.0000 </r>
      </set>
     </set>
    </array>
   </total>
  </dos>
 </calculation>
 <structure name="finalpos" >
  <crystal>
   <varray name="basis" >
    <v>       3.00774940       0.00000000       0.00000000 </v>
    <v>       1.50387470       2.60478739       0.00000000 </v>
    <v>       1.50387470       0.86826246       2.45581711 </v>
   </varray>
   <i name="volume">     19.24021632 </i>
   <varray name="rec_basis" >
    <v>       0.33247451      -0.19195425      -0.13573215 </v>
    <v>       0.00000000       0.38390849      -0.13573215 </v>
    <v>       0.00000000       0.00000000       0.40719645 </v>
   </varray>
  </crystal>
  <varray name="positions" >
   <v>       0.00000000       0.00000000       0.00000000 </v>
  </varray>
 </structure>
</modeling>
