 vasp.5.3.5 31Mar14 (build Jan 09 2015 16:57:47) complex                        
  
 POSCAR found :  1 types and       1 ions
 LDA part: xc-table for Pade appr. of Perdew
 POSCAR found :  1 types and       1 ions
 POSCAR, INCAR and KPOINTS ok, starting setup
 WARNING: small aliasing (wrap around) errors must be expected
 FFT: planning ...
 WAVECAR not read
 entering main loop
       N       E                     dE             d eps       ncg     rms          rms(c)
DAV:   1     0.278245097800E+02    0.27825E+02   -0.45526E+03  1272   0.771E+02
DAV:   2    -0.269797439562E+01   -0.30522E+02   -0.28693E+02  1102   0.157E+02
DAV:   3    -0.290672373784E+01   -0.20875E+00   -0.20872E+00  1331   0.156E+01
DAV:   4    -0.290710207730E+01   -0.37834E-03   -0.37834E-03  1199   0.628E-01
DAV:   5    -0.290710473007E+01   -0.26528E-05   -0.26528E-05  1070   0.502E-02    0.384E+00
DAV:   6    -0.269944193316E+01    0.20766E+00   -0.10904E+00  1100   0.110E+01    0.268E+00
DAV:   7    -0.269514164165E+01    0.43003E-02   -0.33678E-03  1219   0.614E-01    0.155E+00
DAV:   8    -0.269320341833E+01    0.19382E-02   -0.67287E-04  1122   0.271E-01    0.417E-02
DAV:   9    -0.269321675443E+01   -0.13336E-04   -0.90017E-06   554   0.304E-02
   1 F= -.26932168E+01 E0= -.26931749E+01  d E =-.269322E+01
 curvature:   0.00 expect dE= 0.000E+00 dE for cont linesearch  0.000E+00
 trial: gam= 0.00000 g(F)=  0.211E-61 g(S)=  0.000E+00 ort = 0.000E+00 (trialstep = 0.100E+01)
 search vector abs. value=  0.100E-09
 reached required accuracy - stopping structural energy minimisation
 writing wavefunctions
