unknown system                          
           1
     3.007749    0.000000    0.000000
     1.503875    2.604787    0.000000
     1.503875    0.868262    2.455817
   Ag
   1
Direct configuration=     1
   0.00000000  0.00000000  0.00000000
