unknown system                          
   1.00000000000000     
     3.065591    0.000000    0.000000
     1.532795    2.654879    0.000000
     1.532795    0.884960    2.503044
   Ag
     1
Direct
  0.000000  0.000000  0.000000
 
   28   28   28
  159.09      153.10      136.92      114.80      90.985      68.219      47.935      31.184      18.895      11.282    
  7.3122      5.1401      3.8983      3.3029      3.1311      3.3029      3.8983      5.1401      7.3122      11.282    
  18.895      31.184      47.935      68.219      90.985      114.80      136.92      153.10      153.10      142.03    
  123.02      100.37      77.483      56.328      38.092      23.833      14.207      8.7967      6.0099      4.3719    
  3.5067      3.1501      3.1504      3.5068      4.3714      6.0099      8.7975      14.207      23.832      38.091    
  56.328      77.483      100.37      123.02      142.04      153.10      136.92      123.02      103.75      82.597    
  61.997      43.456      28.185      17.134      10.406      6.8946      4.8922      3.7520      3.2053      3.0471    
  3.2053      3.7520      4.8922      6.8946      10.406      17.134      28.185      43.456      61.997      82.597    
  103.75      123.02      136.92      142.04      114.80      100.37      82.597      64.003      46.388      31.167    
  19.504      11.894      7.7114      5.4043      4.0164      3.2864      2.9848      2.9851      3.2869      4.0163    
  5.4037      7.7112      11.895      19.505      31.167      46.388      64.003      82.597      100.37      114.80    
  123.02      123.02      90.985      77.484      61.997      46.388      32.227      20.831      12.955      8.3664    
  5.8371      4.2662      3.3807      2.9530      2.8281      2.9531      3.3807      4.2662      5.8371      8.3664    
  12.955      20.831      32.227      46.388      61.997      77.484      90.985      100.37      103.75      100.37    
  68.219      56.328      43.456      31.168      20.831      13.339      8.7372      6.1281      4.4617      3.4674    
  2.9414      2.7199      2.7190      2.9404      3.4682      4.4629      6.1277      8.7363      13.339      20.831    
  31.167      43.456      56.329      68.220      77.483      82.597      82.597      77.483      47.935      38.091    
  28.185      19.505      12.954      8.7363      6.2303      4.5713      3.5306      2.9385      2.6460      2.5592    
  2.6460      2.9385      3.5306      4.5713      6.2303      8.7363      12.954      19.505      28.185      38.091    
  47.935      56.329      61.997      64.003      61.997      56.329      31.184      23.832      17.133      11.895    
  8.3668      6.1274      4.5703      3.5542      2.9411      2.6024      2.4541      2.4550      2.6033      2.9401    
  3.5530      4.5709      6.1284      8.3664      11.894      17.134      23.833      31.183      38.091      43.456    
  46.388      46.387      43.456      38.092      18.896      14.207      10.405      7.7114      5.8378      4.4621    
  3.5302      2.9407      2.5891      2.4027      2.3442      2.4027      2.5890      2.9407      3.5302      4.4621    
  5.8378      7.7114      10.405      14.207      18.896      23.833      28.185      31.167      32.228      31.167    
  28.185      23.833      11.282      8.7972      6.8947      5.4041      4.2664      3.4680      2.9389      2.6026    
  2.4028      2.3086      2.3082      2.4024      2.6031      2.9396      3.4677      4.2657      5.4040      6.8948    
  8.7970      11.283      14.207      17.133      19.504      20.831      20.831      19.505      17.133      14.207    
  7.3117      6.0097      4.8922      4.0163      3.3803      2.9411      2.6460      2.4544      2.3446      2.3084    
  2.3446      2.4544      2.6460      2.9411      3.3804      4.0164      4.8922      6.0097      7.3117      8.7971    
  10.406      11.895      12.954      13.339      12.954      11.895      10.406      8.7971      5.1401      4.3715    
  3.7517      3.2864      2.9531      2.7195      2.5586      2.4547      2.4027      2.4026      2.4545      2.5584    
  2.7193      2.9531      3.2868      3.7523      4.3718      5.1398      6.0096      6.8946      7.7114      8.3668    
  8.7368      8.7366      8.3664      7.7111      6.8949      6.0103      3.8989      3.5070      3.2052      2.9848    
  2.8285      2.7193      2.6459      2.6029      2.5887      2.6029      2.6459      2.7193      2.8285      2.9848    
  3.2052      3.5070      3.8989      4.3718      4.8922      5.4038      5.8374      6.1281      6.2303      6.1281    
  5.8374      5.4038      4.8922      4.3717      3.3029      3.1505      3.0473      2.9851      2.9531      2.9408    
  2.9390      2.9405      2.9407      2.9394      2.9410      2.9530      2.9848      3.0468      3.1500      3.3029    
  3.5070      3.7524      4.0164      4.2659      4.4621      4.5706      4.5707      4.4625      4.2662      4.0164    
  3.7517      3.5064      3.1305      3.1501      3.2053      3.2868      3.3804      3.4679      3.5306      3.5534    
  3.5306      3.4679      3.3804      3.2868      3.2053      3.1500      3.1305      3.1500      3.2053      3.2868    
  3.3804      3.4679      3.5306      3.5534      3.5306      3.4679      3.3804      3.2868      3.2053      3.1501    
  3.3029      3.5064      3.7517      4.0164      4.2662      4.4625      4.5707      4.5706      4.4621      4.2659    
  4.0164      3.7524      3.5070      3.3029      3.1500      3.0468      2.9848      2.9530      2.9410      2.9394    
  2.9407      2.9405      2.9390      2.9408      2.9531      2.9851      3.0473      3.1505      3.8989      4.3717    
  4.8922      5.4038      5.8374      6.1281      6.2303      6.1281      5.8374      5.4038      4.8922      4.3718    
  3.8989      3.5070      3.2052      2.9848      2.8285      2.7193      2.6459      2.6029      2.5887      2.6029    
  2.6459      2.7193      2.8285      2.9848      3.2052      3.5070      5.1401      6.0103      6.8949      7.7111    
  8.3664      8.7366      8.7368      8.3668      7.7114      6.8946      6.0096      5.1398      4.3718      3.7523    
  3.2868      2.9531      2.7193      2.5584      2.4545      2.4026      2.4027      2.4547      2.5586      2.7195    
  2.9531      3.2864      3.7517      4.3715      7.3117      8.7971      10.406      11.895      12.954      13.339    
  12.954      11.895      10.406      8.7971      7.3117      6.0097      4.8922      4.0164      3.3804      2.9411    
  2.6460      2.4544      2.3446      2.3084      2.3446      2.4544      2.6460      2.9411      3.3803      4.0163    
  4.8922      6.0097      11.282      14.207      17.133      19.505      20.831      20.831      19.504      17.133    
  14.207      11.283      8.7970      6.8948      5.4040      4.2657      3.4677      2.9396      2.6031      2.4024    
  2.3082      2.3086      2.4028      2.6026      2.9389      3.4680      4.2664      5.4041      6.8947      8.7972    
  18.896      23.833      28.185      31.167      32.228      31.167      28.185      23.833      18.896      14.207    
  10.405      7.7114      5.8378      4.4621      3.5302      2.9407      2.5890      2.4027      2.3442      2.4027    
  2.5891      2.9407      3.5302      4.4621      5.8378      7.7114      10.405      14.207      31.184      38.092    
  43.456      46.387      46.388      43.456      38.091      31.183      23.833      17.134      11.894      8.3664    
  6.1284      4.5709      3.5530      2.9401      2.6033      2.4550      2.4541      2.6024      2.9411      3.5542    
  4.5703      6.1274      8.3668      11.895      17.133      23.832      47.935      56.329      61.997      64.003    
  61.997      56.329      47.935      38.091      28.185      19.505      12.954      8.7363      6.2303      4.5713    
  3.5306      2.9385      2.6460      2.5592      2.6460      2.9385      3.5306      4.5713      6.2303      8.7363    
  12.954      19.505      28.185      38.091      68.219      77.483      82.597      82.597      77.483      68.220    
  56.329      43.456      31.167      20.831      13.339      8.7363      6.1277      4.4629      3.4682      2.9404    
  2.7190      2.7199      2.9414      3.4674      4.4617      6.1281      8.7372      13.339      20.831      31.168    
  43.456      56.328      90.985      100.37      103.75      100.37      90.985      77.484      61.997      46.388    
  32.227      20.831      12.955      8.3664      5.8371      4.2662      3.3807      2.9531      2.8281      2.9530    
  3.3807      4.2662      5.8371      8.3664      12.955      20.831      32.227      46.388      61.997      77.484    
  114.80      123.02      123.02      114.80      100.37      82.597      64.003      46.388      31.167      19.505    
  11.895      7.7112      5.4037      4.0163      3.2869      2.9851      2.9848      3.2864      4.0164      5.4043    
  7.7114      11.894      19.504      31.167      46.388      64.003      82.597      100.37      136.92      142.04    
  136.92      123.02      103.75      82.597      61.997      43.456      28.185      17.134      10.406      6.8946    
  4.8922      3.7520      3.2053      3.0471      3.2053      3.7520      4.8922      6.8946      10.406      17.134    
  28.185      43.456      61.997      82.597      103.75      123.02      153.10      153.10      142.04      123.02    
  100.37      77.483      56.328      38.091      23.832      14.207      8.7975      6.0099      4.3714      3.5068    
  3.1504      3.1501      3.5067      4.3719      6.0099      8.7967      14.207      23.833      38.092      56.328    
  77.483      100.37      123.02      142.03      153.10      142.03      123.02      100.37      77.483      56.328    
  38.092      23.833      14.207      8.7967      6.0099      4.3719      3.5067      3.1501      3.1504      3.5068    
  4.3714      6.0099      8.7975      14.207      23.832      38.091      56.328      77.483      100.37      123.02    
  142.04      153.10      142.03      127.41      107.23      85.242      63.960      44.870      29.133      17.692    
  10.685      7.0315      4.9756      3.8031      3.2408      3.0781      3.2409      3.8032      4.9755      7.0315    
  10.686      17.692      29.133      44.869      63.959      85.241      107.24      127.41      142.04      147.43    
  123.02      107.23      88.011      68.131      49.439      33.290      20.825      12.597      8.0478      5.6006    
  4.1346      3.3630      3.0446      3.0448      3.3634      4.1347      5.6002      8.0475      12.598      20.826    
  33.290      49.438      68.131      88.012      107.24      123.02      132.09      132.09      100.37      85.242    
  68.131      51.051      35.570      22.998      14.171      8.9629      6.1684      4.4657      3.5038      3.0410    
  2.9063      3.0409      3.5038      4.4658      6.1683      8.9627      14.171      22.999      35.570      51.051    
  68.131      85.242      100.37      111.00      114.86      111.00      77.483      63.960      49.439      35.570    
  23.774      15.060      9.6126      6.6010      4.7499      3.6408      3.0565      2.8123      2.8115      3.0556    
  3.6414      4.7508      6.6005      9.6117      15.060      23.775      35.570      49.439      63.960      77.484    
  88.143      94.084      94.085      88.144      56.328      44.870      33.290      22.999      15.060      9.8473    
  6.8347      4.9440      3.7521      3.0781      2.7487      2.6517      2.7487      3.0781      3.7521      4.9441    
  6.8348      9.8474      15.060      22.998      33.290      44.870      56.328      66.133      72.797      75.166    
  72.796      66.133      38.092      29.133      20.825      14.171      9.6128      6.8343      5.0116      3.8150    
  3.0985      2.7091      2.5413      2.5422      2.7101      3.0977      3.8140      5.0123      6.8353      9.6121    
  14.170      20.825      29.134      38.091      46.434      52.896      56.430      56.430      52.896      46.435    
  23.833      17.692      12.597      8.9629      6.6013      4.9435      3.8141      3.1059      2.6914      2.4767    
  2.4103      2.4767      2.6914      3.1057      3.8139      4.9434      6.6014      8.9633      12.597      17.692    
  23.833      30.171      35.686      39.439      40.770      39.439      35.687      30.171      14.207      10.686    
  8.0475      6.1683      4.7504      3.7523      3.0979      2.6907      2.4552      2.3466      2.3461      2.4546    
  2.6911      3.0984      3.7519      4.7499      6.1687      8.0480      10.685      14.207      18.293      22.305    
  25.511      27.290      27.291      25.512      22.305      18.292      8.7970      7.0320      5.6007      4.4655    
  3.6410      3.0788      2.7095      2.4765      2.3463      2.3042      2.3463      2.4765      2.7096      3.0791    
  3.6412      4.4652      5.6001      7.0317      8.7972      10.977      13.374      15.578      17.132      17.692    
  17.132      15.578      13.374      10.977      6.0096      4.9756      4.1347      3.5036      3.0562      2.7487    
  2.5417      2.4108      2.3463      2.3463      2.4108      2.5416      2.7487      3.0563      3.5037      4.1347    
  4.9756      6.0097      7.1657      8.4019      9.6331      10.652      11.232      11.232      10.652      9.6331    
  8.4019      7.1656      4.3716      3.8028      3.3629      3.0410      2.8121      2.6512      2.5417      2.4767    
  2.4550      2.4767      2.5416      2.6509      2.8118      3.0410      3.3634      3.8035      4.3718      5.0516    
  5.7903      6.5055      7.1061      7.5159      7.6626      7.5156      7.1059      6.5057      5.7909      5.0519    
  3.5070      3.2409      3.0446      2.9064      2.8118      2.7487      2.7096      2.6909      2.6909      2.7097    
  2.7487      2.8117      2.9064      3.0446      3.2408      3.5070      3.8449      4.2391      4.6547      5.0403    
  5.3389      5.5020      5.5019      5.3389      5.0403      4.6547      4.2390      3.8448      3.1504      3.0785    
  3.0450      3.0409      3.0559      3.0787      3.0981      3.1057      3.0982      3.0790      3.0563      3.0410    
  3.0445      3.0779      3.1500      3.2655      3.4217      3.6063      3.7974      3.9664      4.0836      4.1258    
  4.0840      3.9667      3.7972      3.6058      3.4213      3.2655      3.1501      3.2409      3.3635      3.5037    
  3.6412      3.7521      3.8144      3.8144      3.7521      3.6412      3.5037      3.3635      3.2409      3.1500    
  3.0979      3.0842      3.1028      3.1435      3.1934      3.2383      3.2649      3.2649      3.2383      3.1935    
  3.1436      3.1029      3.0842      3.0979      3.5066      3.8029      4.1345      4.4657      4.7506      4.9436    
  5.0119      4.9434      4.7502      4.4654      4.1347      3.8035      3.5071      3.2656      3.0841      2.9568    
  2.8719      2.8179      2.7858      2.7694      2.7643      2.7691      2.7855      2.8178      2.8722      2.9573    
  3.0845      3.2655      4.3718      4.9756      5.6001      6.1684      6.6008      6.8349      6.8348      6.6008    
  6.1685      5.6002      4.9756      4.3717      3.8449      3.4218      3.1028      2.8718      2.7076      2.5931    
  2.5186      2.4815      2.4815      2.5187      2.5930      2.7076      2.8719      3.1029      3.4217      3.8448    
  6.0102      7.0318      8.0476      8.9627      9.6120      9.8479      9.6125      8.9633      8.0477      7.0315    
  6.0097      5.0516      4.2390      3.6062      3.1436      2.8179      2.5930      2.4427      2.3543      2.3248    
  2.3543      2.4429      2.5932      2.8178      3.1431      3.6057      4.2390      5.0519      8.7973      10.685    
  12.598      14.171      15.060      15.060      14.171      12.598      10.686      8.7971      7.1656      5.7905    
  4.6548      3.7973      3.1934      2.7860      2.5187      2.3542      2.2748      2.2750      2.3544      2.5186    
  2.7858      3.1935      3.7974      4.6546      5.7903      7.1657      14.207      17.692      20.825      22.999    
  23.775      22.998      20.825      17.692      14.208      10.978      8.4016      6.5055      5.0406      3.9665    
  3.2380      2.7694      2.4818      2.3248      2.2746      2.3248      2.4817      2.7691      3.2379      3.9667    
  5.0411      6.5057      8.4015      10.977      23.833      29.134      33.289      35.570      35.570      33.290    
  29.133      23.832      18.293      13.374      9.6328      7.1057      5.3392      4.0840      3.2646      2.7639    
  2.4818      2.3547      2.3540      2.4811      2.7646      3.2653      4.0834      5.3385      7.1063      9.6335    
  13.374      18.292      38.092      44.870      49.438      51.051      49.439      44.871      38.092      30.170    
  22.305      15.578      10.652      7.5153      5.5019      4.1264      3.2649      2.7685      2.5186      2.4435    
  2.5187      2.7686      3.2650      4.1265      5.5019      7.5150      10.651      15.578      22.306      30.171    
  56.328      63.959      68.131      68.131      63.959      56.329      46.435      35.686      25.511      17.132    
  11.232      7.6622      5.5016      4.0844      3.2387      2.7852      2.5926      2.5936      2.7863      3.2378    
  4.0833      5.5023      7.6633      11.232      17.131      25.512      35.687      46.434      77.482      85.241    
  88.012      85.242      77.483      66.133      52.896      39.439      27.290      17.692      11.232      7.5156    
  5.3384      3.9668      3.1939      2.8178      2.7071      2.8178      3.1939      3.9667      5.3383      7.5156    
  11.232      17.693      27.290      39.439      52.896      66.132      100.37      107.24      107.24      100.37    
  88.143      72.797      56.430      40.769      27.290      17.132      10.652      7.1061      5.0401      3.7971    
  3.1438      2.8723      2.8716      3.1429      3.7976      5.0410      7.1058      10.651      17.132      27.291    
  40.769      56.430      72.797      88.143      123.02      127.41      123.02      111.00      94.085      75.167    
  56.430      39.439      25.512      15.577      9.6332      6.5057      4.6547      3.6057      3.1029      2.9573    
  3.1028      3.6057      4.6548      6.5058      9.6332      15.577      25.511      39.439      56.430      75.167    
  94.085      111.00      142.04      142.04      132.09      114.86      94.084      72.797      52.896      35.687    
  22.305      13.374      8.4021      5.7908      4.2389      3.4214      3.0844      3.0844      3.4216      4.2391    
  5.7905      8.4017      13.374      22.306      35.687      52.895      72.796      94.085      114.87      132.09    
  153.10      147.43      132.09      111.00      88.143      66.132      46.435      30.171      18.292      10.977    
  7.1661      5.0519      3.8444      3.2655      3.0983      3.2655      3.8444      5.0519      7.1661      10.977    
  18.292      30.171      46.435      66.132      88.143      111.00      132.09      147.43      136.92      123.02    
  103.75      82.597      61.997      43.456      28.185      17.134      10.406      6.8946      4.8922      3.7520    
  3.2053      3.0471      3.2053      3.7520      4.8922      6.8946      10.406      17.134      28.185      43.456    
  61.997      82.597      103.75      123.02      136.92      142.04      123.02      107.23      88.011      68.131    
  49.439      33.290      20.825      12.597      8.0478      5.6006      4.1346      3.3630      3.0446      3.0448    
  3.3634      4.1347      5.6002      8.0475      12.598      20.826      33.290      49.438      68.131      88.012    
  107.24      123.02      132.09      132.09      103.75      88.012      70.301      52.694      36.751      23.771    
  14.610      9.1783      6.2843      4.5358      3.5469      3.0715      2.9333      3.0715      3.5469      4.5358    
  6.2843      9.1783      14.610      23.771      36.751      52.694      70.301      88.011      103.75      114.87    
  118.91      114.87      82.597      68.131      52.694      37.974      25.402      16.028      10.109      6.8558    
  4.9058      3.7344      3.1180      2.8612      2.8605      3.1172      3.7349      4.9066      6.8555      10.108    
  16.028      25.403      37.975      52.694      68.131      82.596      94.084      100.52      100.52      94.085    
  61.997      49.439      36.751      25.403      16.538      10.636      7.2398      5.1928      3.8997      3.1702    
  2.8156      2.7118      2.8157      3.1702      3.8997      5.1928      7.2398      10.636      16.538      25.403    
  36.751      49.439      61.997      72.797      80.183      82.820      80.183      72.797      43.456      33.290    
  23.771      16.028      10.636      7.3757      5.3477      4.0141      3.2178      2.7890      2.6060      2.6070    
  2.7900      3.2170      4.0131      5.3486      7.3769      10.636      16.027      23.771      33.290      43.456    
  52.896      60.219      64.234      64.233      60.217      52.896      28.186      20.825      14.609      10.108    
  7.2404      5.3481      4.0537      3.2448      2.7771      2.5385      2.4655      2.5384      2.7771      3.2448    
  4.0537      5.3481      7.2403      10.108      14.609      20.825      28.186      35.687      42.169      46.569    
  48.128      46.569      42.169      35.687      17.134      12.598      9.1780      6.8553      5.1927      4.0140    
  3.2445      2.7724      2.5049      2.3836      2.3829      2.5042      2.7731      3.2451      4.0132      5.1918    
  6.8560      9.1791      12.598      17.133      22.306      27.312      31.273      33.461      33.461      31.275    
  27.312      22.305      10.406      8.0480      6.2844      4.9057      3.8997      3.2177      2.7766      2.5043    
  2.3555      2.3081      2.3555      2.5042      2.7766      3.2177      3.8997      4.9057      6.2844      8.0480    
  10.406      13.374      16.609      19.546      21.598      22.335      21.598      19.546      16.609      13.374    
  6.8948      5.6008      4.5359      3.7345      3.1705      2.7895      2.5385      2.3832      2.3078      2.3079    
  2.3833      2.5384      2.7895      3.1710      3.7348      4.5355      5.6001      6.8946      8.4020      10.135    
  11.897      13.356      14.184      14.184      13.355      11.897      10.135      8.4017      4.8922      4.1347    
  3.5468      3.1178      2.8156      2.6064      2.4660      2.3832      2.3555      2.3832      2.4660      2.6064    
  2.8156      3.1178      3.5468      4.1347      4.8923      5.7904      6.7531      7.6975      8.5412      9.1389    
  9.3560      9.1389      8.5413      7.6975      6.7531      5.7904      3.7518      3.3630      3.0714      2.8609    
  2.7114      2.6066      2.5384      2.5044      2.5046      2.5386      2.6064      2.7109      2.8608      3.0716    
  3.3634      3.7523      4.2392      4.8002      5.3838      5.9177      6.3258      6.5465      6.5463      6.3256    
  5.9180      5.3843      4.8004      4.2389      3.2053      3.0446      2.9334      2.8606      2.8157      2.7897    
  2.7766      2.7727      2.7766      2.7897      2.8156      2.8606      2.9333      3.0446      3.2053      3.4217    
  3.6904      3.9934      4.2981      4.5617      4.7415      4.8054      4.7415      4.5617      4.2980      3.9934    
  3.6904      3.4217      3.0473      3.0449      3.0715      3.1174      3.1706      3.2174      3.2448      3.2448    
  3.2174      3.1709      3.1178      3.0716      3.0445      3.0467      3.0842      3.1580      3.2624      3.3852    
  3.5077      3.6076      3.6641      3.6642      3.6079      3.5076      3.3848      3.2620      3.1579      3.0846    
  3.2053      3.3635      3.5468      3.7347      3.8997      4.0135      4.0542      4.0135      3.8997      3.7347    
  3.5468      3.3635      3.2053      3.0842      3.0035      2.9599      2.9455      2.9508      2.9656      2.9800    
  2.9858      2.9800      2.9656      2.9508      2.9455      2.9599      3.0036      3.0842      3.7518      4.1346    
  4.5358      4.9063      5.1924      5.3482      5.3480      5.1920      4.9061      4.5356      4.1347      3.7523    
  3.4219      3.1580      2.9598      2.8172      2.7174      2.6495      2.6069      2.5864      2.5864      2.6069    
  2.6493      2.7175      2.8178      2.9603      3.1578      3.4212      4.8922      5.6002      6.2844      6.8556    
  7.2398      7.3766      7.2398      6.8556      6.2844      5.6002      4.8923      4.2391      3.6904      3.2625    
  2.9455      2.7172      2.5554      2.4448      2.3788      2.3566      2.3787      2.4447      2.5554      2.7172    
  2.9455      3.2625      3.6904      4.2390      6.8949      8.0476      9.1783      10.108      10.636      10.636    
  10.108      9.1788      8.0477      6.8945      5.7904      4.8002      3.9933      3.3852      2.9508      2.6494    
  2.4447      2.3145      2.2501      2.2502      2.3146      2.4448      2.6493      2.9505      3.3848      3.9932    
  4.8005      5.7910      10.406      12.598      14.610      16.027      16.538      16.027      14.610      12.598    
  10.406      8.4019      6.7529      5.3838      4.2982      3.5077      2.9655      2.6070      2.3789      2.2501    
  2.2081      2.2501      2.3789      2.6070      2.9655      3.5077      4.2982      5.3838      6.7529      8.4019    
  17.134      20.826      23.771      25.403      25.403      23.771      20.825      17.133      13.375      10.135    
  7.6973      5.9175      4.5621      3.6079      2.9798      2.5862      2.3569      2.2504      2.2499      2.3563    
  2.5866      2.9803      3.6076      4.5618      5.9182      7.6977      10.134      13.374      28.185      33.290    
  36.751      37.975      36.751      33.290      28.185      22.305      16.609      11.898      8.5412      6.3253    
  4.7415      3.6646      2.9858      2.5859      2.3787      2.3151      2.3788      2.5859      2.9858      3.6646    
  4.7415      6.3253      8.5413      11.898      16.609      22.305      43.455      49.439      52.694      52.694    
  49.439      43.457      35.687      27.311      19.545      13.356      9.1393      6.5460      4.8049      3.6646    
  2.9804      2.6064      2.4443      2.4452      2.6074      2.9796      3.6637      4.8056      6.5468      9.1383    
  13.355      19.546      27.313      35.687      61.996      68.131      70.301      68.131      61.996      52.896    
  42.170      31.274      21.598      14.184      9.3566      6.5464      4.7409      3.6078      2.9662      2.6493    
  2.5548      2.6493      2.9662      3.6078      4.7409      6.5463      9.3566      14.184      21.598      31.274    
  42.170      52.896      82.597      88.012      88.012      82.596      72.796      60.218      46.569      33.461    
  22.335      14.183      9.1393      6.3260      4.5615      3.5073      2.9511      2.7178      2.7170      2.9502    
  3.5080      4.5624      6.3254      9.1384      14.184      22.336      33.461      46.568      60.218      72.797    
  103.75      107.24      103.75      94.085      80.183      64.233      48.127      33.461      21.598      13.355    
  8.5413      5.9182      4.2980      3.3845      2.9455      2.8180      2.9455      3.3845      4.2980      5.9182    
  8.5413      13.355      21.598      33.461      48.127      64.233      80.183      94.085      123.02      123.02    
  114.87      100.52      82.820      64.233      46.569      31.274      19.546      11.897      7.6975      5.3843    
  3.9933      3.2619      2.9599      2.9603      3.2624      3.9932      5.3838      7.6975      11.897      19.546    
  31.274      46.568      64.233      82.821      100.52      114.86      136.92      132.09      118.91      100.52    
  80.183      60.218      42.170      27.312      16.609      10.135      6.7532      4.8005      3.6902      3.1579    
  3.0038      3.1579      3.6902      4.8005      6.7532      10.135      16.609      27.312      42.170      60.218    
  80.183      100.52      118.91      132.09      142.04      132.09      114.87      94.085      72.796      52.895    
  35.687      22.306      13.374      8.4017      5.7905      4.2391      3.4216      3.0844      3.0844      3.4214    
  4.2389      5.7908      8.4021      13.374      22.305      35.687      52.896      72.797      94.084      114.86    
  132.09      142.04      114.80      100.37      82.597      64.003      46.388      31.167      19.504      11.894    
  7.7114      5.4043      4.0164      3.2864      2.9848      2.9851      3.2869      4.0163      5.4037      7.7112    
  11.895      19.505      31.167      46.388      64.003      82.597      100.37      114.80      123.02      123.02    
  100.37      85.242      68.131      51.051      35.570      22.998      14.171      8.9629      6.1684      4.4657    
  3.5038      3.0410      2.9063      3.0409      3.5038      4.4658      6.1683      8.9627      14.171      22.999    
  35.570      51.051      68.131      85.242      100.37      111.00      114.86      111.00      82.597      68.131    
  52.694      37.974      25.402      16.028      10.109      6.8558      4.9058      3.7344      3.1180      2.8612    
  2.8605      3.1172      3.7349      4.9066      6.8555      10.108      16.028      25.403      37.975      52.694    
  68.131      82.596      94.084      100.52      100.52      94.085      64.003      51.051      37.974      26.259    
  17.070      10.922      7.3839      5.2801      3.9515      3.2025      2.8389      2.7325      2.8390      3.2025    