unknown system                          
   1.00000000000000     
     3.065591    0.000000    0.000000
     1.532795    2.654879    0.000000
     1.532795    0.884960    2.503044
   Ag
     1
Direct
  0.000000  0.000000  0.000000
 
   28   28   28
 0.15908985040E+03 0.15309745457E+03 0.13692309634E+03 0.11480025615E+03 0.90984630769E+02
 0.68219035914E+02 0.47935055171E+02 0.31183508703E+02 0.18895224306E+02 0.11282286673E+02
 0.73122374451E+01 0.51401251439E+01 0.38982936038E+01 0.33029222211E+01 0.31310934295E+01
 0.33029222211E+01 0.38982936038E+01 0.51401251439E+01 0.73122374451E+01 0.11282286673E+02
 0.18895224306E+02 0.31183508703E+02 0.47935055171E+02 0.68219035914E+02 0.90984630769E+02
 0.11480025615E+03 0.13692309634E+03 0.15309745457E+03 0.15309712640E+03 0.14203427010E+03
 0.12302471710E+03 0.10036687848E+03 0.77483194253E+02 0.56327821484E+02 0.38091885705E+02
 0.23833135259E+02 0.14206870038E+02 0.87967109260E+01 0.60099294246E+01 0.43718540647E+01
 0.35066698722E+01 0.31501270999E+01 0.31503910356E+01 0.35067861189E+01 0.43713900244E+01
 0.60099195808E+01 0.87975219589E+01 0.14207086999E+02 0.23832232085E+02 0.38091437023E+02
 0.56328412119E+02 0.77483079303E+02 0.10036558295E+03 0.12302462965E+03 0.14203638018E+03
 0.15309856706E+03 0.13692255219E+03 0.12302414027E+03 0.10374873653E+03 0.82597200899E+02
 0.61996825547E+02 0.43455664896E+02 0.28185259436E+02 0.17133532012E+02 0.10405741634E+02
 0.68946391564E+01 0.48922033634E+01 0.37520040936E+01 0.32052782135E+01 0.30470614478E+01
 0.32052943535E+01 0.37520203852E+01 0.48922023920E+01 0.68946187453E+01 0.10405718516E+02
 0.17133526512E+02 0.28185274335E+02 0.43455674241E+02 0.61996788943E+02 0.82597088421E+02
 0.10374856121E+03 0.12302395686E+03 0.13692243418E+03 0.14203630066E+03 0.11480022976E+03
 0.10036657669E+03 0.82596978637E+02 0.64002962973E+02 0.46387663020E+02 0.31167400262E+02
 0.19504392215E+02 0.11894263535E+02 0.77113985358E+01 0.54043076911E+01 0.40164338599E+01
 0.32864003325E+01 0.29847900187E+01 0.29851192441E+01 0.32868729475E+01 0.40163030141E+01
 0.54037308087E+01 0.77111611256E+01 0.11894587509E+02 0.19504721654E+02 0.31167400916E+02
 0.46387730511E+02 0.64003399432E+02 0.82597216390E+02 0.10036586133E+03 0.11479887602E+03
 0.12302423189E+03 0.12302493144E+03 0.90984863014E+02 0.77483522431E+02 0.61997137456E+02
 0.46387689407E+02 0.32226995129E+02 0.20831012371E+02 0.12954710127E+02 0.83663878305E+01
 0.58370772856E+01 0.42662105276E+01 0.33806522615E+01 0.29530456103E+01 0.28281343487E+01
 0.29530600962E+01 0.33806688236E+01 0.42662147682E+01 0.58370659782E+01 0.83663724273E+01
 0.12954709910E+02 0.20831038092E+02 0.32227041536E+02 0.46387735029E+02 0.61997159177E+02
 0.77483514347E+02 0.90984835592E+02 0.10036588772E+03 0.10374887312E+03 0.10036591113E+03
 0.68218679356E+02 0.56327793104E+02 0.43456270102E+02 0.31167730433E+02 0.20830655814E+02
 0.13338710838E+02 0.87372191431E+01 0.61281355291E+01 0.44617200453E+01 0.34674464077E+01
 0.29414030199E+01 0.27198673291E+01 0.27189768136E+01 0.29404221677E+01 0.34682403399E+01
 0.44628597246E+01 0.61276999100E+01 0.87362859323E+01 0.13338971920E+02 0.20831156134E+02
 0.31167065208E+02 0.43455567517E+02 0.56328530982E+02 0.68219817754E+02 0.77483157789E+02
 0.82596886219E+02 0.82597196331E+02 0.77483107683E+02 0.47934511016E+02 0.38090981517E+02
 0.28185259436E+02 0.19504941837E+02 0.12954398218E+02 0.87362865757E+01 0.62303356899E+01
 0.45712907140E+01 0.35305584532E+01 0.29384958503E+01 0.26459855953E+01 0.25591793619E+01
 0.26459808262E+01 0.29384929875E+01 0.35305644347E+01 0.45713023826E+01 0.62303424182E+01
 0.87362743029E+01 0.12954368643E+02 0.19504910411E+02 0.28185253211E+02 0.38091022052E+02
 0.47934591656E+02 0.56328750434E+02 0.61996847268E+02 0.64002797035E+02 0.61996788943E+02
 0.56328659951E+02 0.31183882851E+02 0.23832432932E+02 0.17132909216E+02 0.11894664070E+02
 0.83667619787E+01 0.61274048231E+01 0.45703405563E+01 0.35541778358E+01 0.29410690699E+01
 0.26023605531E+01 0.24541283721E+01 0.24550381339E+01 0.26033058777E+01 0.29401497704E+01
 0.35530206545E+01 0.45709314709E+01 0.61284377393E+01 0.83664490858E+01 0.11894146930E+02
 0.17133578719E+02 0.23832892302E+02 0.31182822436E+02 0.38091223913E+02 0.43456298224E+02
 0.46388109177E+02 0.46387329976E+02 0.43455548741E+02 0.38092139349E+02 0.18896167086E+02
 0.14207198216E+02 0.10405343009E+02 0.77114249228E+01 0.58377878197E+01 0.44620766032E+01
 0.35301598281E+01 0.29406949217E+01 0.25890587279E+01 0.24026675066E+01 0.23441526896E+01
 0.24026509939E+01 0.25890390777E+01 0.29406869114E+01 0.35301705542E+01 0.44620946153E+01
 0.58377955556E+01 0.77114052410E+01 0.10405292308E+02 0.14207134931E+02 0.18896106664E+02
 0.23832518154E+02 0.28184854586E+02 0.31167421766E+02 0.32227752070E+02 0.31167427303E+02
 0.28184875710E+02 0.23832560263E+02 0.11282453300E+02 0.87972057302E+01 0.68947211784E+01
 0.54041146778E+01 0.42663771539E+01 0.34679695919E+01 0.29389052336E+01 0.26025680751E+01
 0.24028341329E+01 0.23086146859E+01 0.23081879437E+01 0.24024226160E+01 0.26031077529E+01
 0.29395853519E+01 0.34677214125E+01 0.42657135976E+01 0.54039590410E+01 0.68947918638E+01
 0.87970313818E+01 0.11282586619E+02 0.14207301557E+02 0.17133371197E+02 0.19504167775E+02
 0.20830632950E+02 0.20831204718E+02 0.19504914668E+02 0.17133111237E+02 0.14206592194E+02
 0.73116932905E+01 0.60096899070E+01 0.48922033634E+01 0.40163188125E+01 0.33803403524E+01
 0.29411351223E+01 0.26459855953E+01 0.24544138599E+01 0.23445513147E+01 0.23084432303E+01
 0.23445564968E+01 0.24544200600E+01 0.26459895100E+01 0.29411391510E+01 0.33803526830E+01
 0.40163504848E+01 0.48922494396E+01 0.60097439800E+01 0.73117326698E+01 0.87971093477E+01
 0.10405690933E+02 0.11894609738E+02 0.12954368643E+02 0.13338526702E+02 0.12954398001E+02
 0.11894649783E+02 0.10405718516E+02 0.87971051205E+01 0.51401322764E+01 0.43715187542E+01
 0.37517483127E+01 0.32864338521E+01 0.29530527429E+01 0.27195036386E+01 0.25585962198E+01
 0.24546711183E+01 0.24026581265E+01 0.24025821096E+01 0.24545015878E+01 0.25584061374E+01
 0.27193365792E+01 0.29530670399E+01 0.32868216318E+01 0.37523451590E+01 0.43717754024E+01
 0.51397580402E+01 0.60096481871E+01 0.68946323701E+01 0.77114123735E+01 0.83668161014E+01
 0.87368431800E+01 0.87366496228E+01 0.83663795599E+01 0.77111276060E+01 0.68948602610E+01
 0.60102548913E+01 0.38988875747E+01 0.35069980501E+01 0.32052283971E+01 0.29848164057E+01
 0.28284960742E+01 0.27193333715E+01 0.26459310098E+01 0.26029317295E+01 0.25886902690E+01
 0.26029411266E+01 0.26459396936E+01 0.27193294466E+01 0.28284754348E+01 0.29847893509E+01
 0.32052097027E+01 0.35070047376E+01 0.38989229530E+01 0.43717682698E+01 0.48921996232E+01
 0.54037924148E+01 0.58374467469E+01 0.61280635911E+01 0.62302926018E+01 0.61280564679E+01
 0.58374277037E+01 0.54037571958E+01 0.48921525756E+01 0.43717182023E+01 0.33029498921E+01
 0.31504829488E+01 0.30472824251E+01 0.29850651862E+01 0.29530877672E+01 0.29408063965E+01
 0.29390413262E+01 0.29404962477E+01 0.29407145824E+01 0.29394463966E+01 0.29410228197E+01
 0.29530465015E+01 0.29848170219E+01 0.30468052531E+01 0.31499888995E+01 0.33029410980E+01
 0.35070324086E+01 0.37523656973E+01 0.40164114742E+01 0.42658525529E+01 0.44621222863E+01
 0.45705849936E+01 0.45706987021E+01 0.44624754957E+01 0.42662424391E+01 0.40163570721E+01
 0.37517440659E+01 0.35064302700E+01 0.31305492750E+01 0.31500628576E+01 0.32052943535E+01
 0.32868465604E+01 0.33803569146E+01 0.34678837820E+01 0.35305644347E+01 0.35533948027E+01
 0.35305691792E+01 0.34678880388E+01 0.33803526830E+01 0.32868287643E+01 0.32052595191E+01
 0.31500165705E+01 0.31304993097E+01 0.31500165705E+01 0.32052595191E+01 0.32868287643E+01
 0.33803526830E+01 0.34678880388E+01 0.35305691792E+01 0.35533948027E+01 0.35305644347E+01
 0.34678837820E+01 0.33803569146E+01 0.32868465604E+01 0.32052943535E+01 0.31500628576E+01
 0.33029498921E+01 0.35064302700E+01 0.37517440659E+01 0.40163570721E+01 0.42662424391E+01
 0.44624754957E+01 0.45706987021E+01 0.45705849936E+01 0.44621222863E+01 0.42658525529E+01
 0.40164114742E+01 0.37523656973E+01 0.35070324086E+01 0.33029410980E+01 0.31499888995E+01
 0.30468052531E+01 0.29848170219E+01 0.29530465015E+01 0.29410228197E+01 0.29394463966E+01
 0.29407145824E+01 0.29404962477E+01 0.29390413262E+01 0.29408063965E+01 0.29530877672E+01
 0.29850651862E+01 0.30472824251E+01 0.31504829488E+01 0.38988875747E+01 0.43717182023E+01
 0.48921525756E+01 0.54037571958E+01 0.58374277037E+01 0.61280564679E+01 0.62302926018E+01
 0.61280635911E+01 0.58374467469E+01 0.54037924148E+01 0.48921996232E+01 0.43717682698E+01
 0.38989229530E+01 0.35070047376E+01 0.32052097027E+01 0.29847893509E+01 0.28284754348E+01
 0.27193294466E+01 0.26459396936E+01 0.26029411266E+01 0.25886902690E+01 0.26029317295E+01
 0.26459310098E+01 0.27193333715E+01 0.28284960742E+01 0.29848164057E+01 0.32052283971E+01
 0.35069980501E+01 0.51401322764E+01 0.60102548913E+01 0.68948602610E+01 0.77111276060E+01
 0.83663795599E+01 0.87366496228E+01 0.87368431800E+01 0.83668161014E+01 0.77114123735E+01
 0.68946323701E+01 0.60096481871E+01 0.51397580402E+01 0.43717754024E+01 0.37523451590E+01
 0.32868216318E+01 0.29530670399E+01 0.27193365792E+01 0.25584061374E+01 0.24545015878E+01
 0.24025821096E+01 0.24026581265E+01 0.24546711183E+01 0.25585962198E+01 0.27195036386E+01
 0.29530527429E+01 0.32864338521E+01 0.37517483127E+01 0.43715187542E+01 0.73116932905E+01
 0.87971051205E+01 0.10405718516E+02 0.11894649783E+02 0.12954398001E+02 0.13338526702E+02
 0.12954368643E+02 0.11894609738E+02 0.10405690933E+02 0.87971093477E+01 0.73117326698E+01
 0.60097439800E+01 0.48922494396E+01 0.40163504848E+01 0.33803526830E+01 0.29411391510E+01
 0.26459895100E+01 0.24544200600E+01 0.23445564968E+01 0.23084432303E+01 0.23445513147E+01
 0.24544138599E+01 0.26459855953E+01 0.29411351223E+01 0.33803403524E+01 0.40163188125E+01
 0.48922033634E+01 0.60096899070E+01 0.11282453300E+02 0.14206592194E+02 0.17133111237E+02
 0.19504914668E+02 0.20831204718E+02 0.20830632950E+02 0.19504167775E+02 0.17133371197E+02
 0.14207301557E+02 0.11282586619E+02 0.87970313818E+01 0.68947918638E+01 0.54039590410E+01
 0.42657135976E+01 0.34677214125E+01 0.29395853519E+01 0.26031077529E+01 0.24024226160E+01
 0.23081879437E+01 0.23086146859E+01 0.24028341329E+01 0.26025680751E+01 0.29389052336E+01
 0.34679695919E+01 0.42663771539E+01 0.54041146778E+01 0.68947211784E+01 0.87972057302E+01
 0.18896167086E+02 0.23832560263E+02 0.28184875710E+02 0.31167427303E+02 0.32227752070E+02
 0.31167421766E+02 0.28184854586E+02 0.23832518154E+02 0.18896106664E+02 0.14207134931E+02
 0.10405292308E+02 0.77114052410E+01 0.58377955556E+01 0.44620946153E+01 0.35301705542E+01
 0.29406869114E+01 0.25890390777E+01 0.24026509939E+01 0.23441526896E+01 0.24026675066E+01
 0.25890587279E+01 0.29406949217E+01 0.35301598281E+01 0.44620766032E+01 0.58377878197E+01
 0.77114249228E+01 0.10405343009E+02 0.14207198216E+02 0.31183882851E+02 0.38092139349E+02
 0.43455548741E+02 0.46387329976E+02 0.46388109177E+02 0.43456298224E+02 0.38091223913E+02
 0.31182822436E+02 0.23832892302E+02 0.17133578719E+02 0.11894146930E+02 0.83664490858E+01
 0.61284377393E+01 0.45709314709E+01 0.35530206545E+01 0.29401497704E+01 0.26033058777E+01
 0.24550381339E+01 0.24541283721E+01 0.26023605531E+01 0.29410690699E+01 0.35541778358E+01
 0.45703405563E+01 0.61274048231E+01 0.83667619787E+01 0.11894664070E+02 0.17132909216E+02
 0.23832432932E+02 0.47934511016E+02 0.56328659951E+02 0.61996788943E+02 0.64002797035E+02
 0.61996847268E+02 0.56328750434E+02 0.47934591656E+02 0.38091022052E+02 0.28185253211E+02
 0.19504910411E+02 0.12954368643E+02 0.87362743029E+01 0.62303424182E+01 0.45713023826E+01
 0.35305644347E+01 0.29384929875E+01 0.26459808262E+01 0.25591793619E+01 0.26459855953E+01
 0.29384958503E+01 0.35305584532E+01 0.45712907140E+01 0.62303356899E+01 0.87362865757E+01
 0.12954398218E+02 0.19504941837E+02 0.28185259436E+02 0.38090981517E+02 0.68218679356E+02
 0.77483107683E+02 0.82597196331E+02 0.82596886219E+02 0.77483157789E+02 0.68219817754E+02
 0.56328530982E+02 0.43455567517E+02 0.31167065208E+02 0.20831156134E+02 0.13338971920E+02
 0.87362859323E+01 0.61276999100E+01 0.44628597246E+01 0.34682403399E+01 0.29404221677E+01
 0.27189768136E+01 0.27198673291E+01 0.29414030199E+01 0.34674464077E+01 0.44617200453E+01
 0.61281355291E+01 0.87372191431E+01 0.13338710838E+02 0.20830655814E+02 0.31167730433E+02
 0.43456270102E+02 0.56327793104E+02 0.90984863014E+02 0.10036591113E+03 0.10374887312E+03
 0.10036588772E+03 0.90984835592E+02 0.77483514347E+02 0.61997159177E+02 0.46387735029E+02
 0.32227041536E+02 0.20831038092E+02 0.12954709910E+02 0.83663724273E+01 0.58370659782E+01
 0.42662147682E+01 0.33806688236E+01 0.29530600962E+01 0.28281343487E+01 0.29530456103E+01
 0.33806522615E+01 0.42662105276E+01 0.58370772856E+01 0.83663878305E+01 0.12954710127E+02
 0.20831012371E+02 0.32226995129E+02 0.46387689407E+02 0.61997137456E+02 0.77483522431E+02
 0.11480022976E+03 0.12302493144E+03 0.12302423189E+03 0.11479887602E+03 0.10036586133E+03
 0.82597216390E+02 0.64003399432E+02 0.46387730511E+02 0.31167400916E+02 0.19504721654E+02
 0.11894587509E+02 0.77111611256E+01 0.54037308087E+01 0.40163030141E+01 0.32868729475E+01
 0.29851192441E+01 0.29847900187E+01 0.32864003325E+01 0.40164338599E+01 0.54043076911E+01
 0.77113985358E+01 0.11894263535E+02 0.19504392215E+02 0.31167400262E+02 0.46387663020E+02
 0.64002962973E+02 0.82596978637E+02 0.10036657669E+03 0.13692255219E+03 0.14203630066E+03
 0.13692243418E+03 0.12302395686E+03 0.10374856121E+03 0.82597088421E+02 0.61996788943E+02
 0.43455674241E+02 0.28185274335E+02 0.17133526512E+02 0.10405718516E+02 0.68946187453E+01
 0.48922023920E+01 0.37520203852E+01 0.32052943535E+01 0.30470614478E+01 0.32052782135E+01
 0.37520040936E+01 0.48922033634E+01 0.68946391564E+01 0.10405741634E+02 0.17133532012E+02
 0.28185259436E+02 0.43455664896E+02 0.61996825547E+02 0.82597200899E+02 0.10374873653E+03
 0.12302414027E+03 0.15309712640E+03 0.15309856706E+03 0.14203638018E+03 0.12302462965E+03
 0.10036558295E+03 0.77483079303E+02 0.56328412119E+02 0.38091437023E+02 0.23832232085E+02
 0.14207086999E+02 0.87975219589E+01 0.60099195808E+01 0.43713900244E+01 0.35067861189E+01
 0.31503910356E+01 0.31501270999E+01 0.35066698722E+01 0.43718540647E+01 0.60099294246E+01
 0.87967109260E+01 0.14206870038E+02 0.23833135259E+02 0.38091885705E+02 0.56327821484E+02
 0.77483194253E+02 0.10036687848E+03 0.12302471710E+03 0.14203427010E+03 0.15309712640E+03
 0.14203427010E+03 0.12302471710E+03 0.10036687848E+03 0.77483194253E+02 0.56327821484E+02
 0.38091885705E+02 0.23833135259E+02 0.14206870038E+02 0.87967109260E+01 0.60099294246E+01
 0.43718540647E+01 0.35066698722E+01 0.31501270999E+01 0.31503910356E+01 0.35067861189E+01
 0.43713900244E+01 0.60099195808E+01 0.87975219589E+01 0.14207086999E+02 0.23832232085E+02
 0.38091437023E+02 0.56328412119E+02 0.77483079303E+02 0.10036558295E+03 0.12302462965E+03
 0.14203638018E+03 0.15309856706E+03 0.14203451845E+03 0.12741234758E+03 0.10723490945E+03
 0.85242294573E+02 0.63959849830E+02 0.44870160329E+02 0.29133469771E+02 0.17691993487E+02
 0.10685322872E+02 0.70314993400E+01 0.49756316026E+01 0.38031204631E+01 0.32407546359E+01
 0.30781380735E+01 0.32409428696E+01 0.38032028909E+01 0.49755264121E+01 0.70314853419E+01
 0.10685596101E+02 0.17692336055E+02 0.29133426279E+02 0.44869432562E+02 0.63958644872E+02
 0.85241455974E+02 0.10723540502E+03 0.12741414940E+03 0.14203620092E+03 0.14742901971E+03
 0.12302444866E+03 0.10723477673E+03 0.88011496488E+02 0.68131136958E+02 0.49439193156E+02
 0.33289828727E+02 0.20824902851E+02 0.12597439933E+02 0.80478014127E+01 0.56005920688E+01
 0.41346006135E+01 0.33630373981E+01 0.30446236033E+01 0.30448196525E+01 0.33634101859E+01
 0.41346697332E+01 0.56001832734E+01 0.80474890334E+01 0.12597846476E+02 0.20825563059E+02
 0.33289645798E+02 0.49438171066E+02 0.68130547208E+02 0.88011957685E+02 0.10723539857E+03
 0.12302443133E+03 0.13208875668E+03 0.13208894160E+03 0.10036644488E+03 0.85241955485E+02
 0.68131184830E+02 0.51051176424E+02 0.35569523012E+02 0.22998216782E+02 0.14171063248E+02
 0.89629410487E+01 0.61683571822E+01 0.44656613151E+01 0.35037944848E+01 0.30410017758E+01
 0.29062838579E+01 0.30408900618E+01 0.35037988004E+01 0.44657555762E+01 0.61682668409E+01
 0.89626787441E+01 0.14170996132E+02 0.22998521220E+02 0.35569960594E+02 0.51051452374E+02
 0.68131170726E+02 0.85241560217E+02 0.10036571874E+03 0.11100271547E+03 0.11486496572E+03
 0.11100334039E+03 0.77483252315E+02 0.63959616333E+02 0.49439400699E+02 0.35569944093E+02
 0.23774260659E+02 0.15059521192E+02 0.96126048960E+01 0.66010378675E+01 0.47498647219E+01
 0.36407761768E+01 0.30565030248E+01 0.28123026030E+01 0.28115064692E+01 0.30556041976E+01
 0.36414215920E+01 0.47507895893E+01 0.66005319477E+01 0.96117022064E+01 0.15059931672E+02
 0.23775214344E+02 0.35569836671E+02 0.49438721725E+02 0.63959671483E+02 0.77483653515E+02
 0.88143328426E+02 0.94084261255E+02 0.94084553004E+02 0.88143522484E+02 0.56328110673E+02
 0.44869968369E+02 0.33289932985E+02 0.22998768904E+02 0.15059807184E+02 0.98473425082E+01
 0.68346578032E+01 0.49440195138E+01 0.37520574954E+01 0.30780924236E+01 0.27486918047E+01
 0.26517081328E+01 0.27486711688E+01 0.30780909903E+01 0.37521128076E+01 0.49441382275E+01
 0.68348016571E+01 0.98474129840E+01 0.15059688889E+02 0.22998461138E+02 0.33289639599E+02
 0.44869958148E+02 0.56328470635E+02 0.66133137669E+02 0.72796737001E+02 0.75166019153E+02
 0.72796352585E+02 0.66132602342E+02 0.38091975745E+02 0.29133064807E+02 0.20824574456E+02
 0.14171320697E+02 0.96127627436E+01 0.68342860209E+01 0.50116045682E+01 0.38149755537E+01
 0.30985487362E+01 0.27091029270E+01 0.25412562872E+01 0.25421767787E+01 0.27100782594E+01
 0.30977052895E+01 0.38139701584E+01 0.50123435452E+01 0.68352585444E+01 0.96121104801E+01
 0.14170463060E+02 0.20825301585E+02 0.29134009193E+02 0.38091352892E+02 0.46433770393E+02
 0.52896092505E+02 0.56430108756E+02 0.56429587298E+02 0.52895792189E+02 0.46434752712E+02
 0.23833354495E+02 0.17691713433E+02 0.12596875495E+02 0.89629213710E+01 0.66012679096E+01
 0.49435255128E+01 0.38141046336E+01 0.31058727176E+01 0.26914444536E+01 0.24766573033E+01
 0.24102907832E+01 0.24767102793E+01 0.26914300802E+01 0.31057166145E+01 0.38138797944E+01
 0.49433906027E+01 0.66013706764E+01 0.89632959958E+01 0.12597358683E+02 0.17691964840E+02
 0.23833118257E+02 0.30170826900E+02 0.35685838054E+02 0.39438870041E+02 0.40769546547E+02
 0.39439286859E+02 0.35686528038E+02 0.30171465488E+02 0.14207428421E+02 0.10685638926E+02
 0.80475418494E+01 0.61682636896E+01 0.47503650430E+01 0.37523160742E+01 0.30979174001E+01
 0.26906951339E+01 0.24551929458E+01 0.23465707208E+01 0.23460585437E+01 0.24546449979E+01
 0.26911452918E+01 0.30984474175E+01 0.37519017559E+01 0.47498614402E+01 0.61686644880E+01
 0.80480218958E+01 0.10685255605E+02 0.14206982982E+02 0.18292556927E+02 0.22305293482E+02
 0.25511185767E+02 0.27290168185E+02 0.27290680615E+02 0.25511795536E+02 0.22305021762E+02
 0.18292215933E+02 0.87969791801E+01 0.70320142367E+01 0.56007306493E+01 0.44655252868E+01
 0.36410485799E+01 0.30787992797E+01 0.27095025811E+01 0.24764546723E+01 0.23462930258E+01
 0.23042194328E+01 0.23463101855E+01 0.24764790490E+01 0.27096382090E+01 0.30790919909E+01
 0.36412262096E+01 0.44652423882E+01 0.56001276893E+01 0.70316712599E+01 0.87972073558E+01
 0.10977498442E+02 0.13374098794E+02 0.15577568394E+02 0.17131774592E+02 0.17692223450E+02
 0.17131923697E+02 0.15577618247E+02 0.13373810047E+02 0.10976996296E+02 0.60095885737E+01
 0.49756334849E+01 0.41347013474E+01 0.35036463589E+01 0.30562370271E+01 0.27487327594E+01
 0.25416854166E+01 0.24107501339E+01 0.23462586045E+01 0.23463191017E+01 0.24108164898E+01
 0.25416331008E+01 0.27486678317E+01 0.30562851071E+01 0.35037220737E+01 0.41346929964E+01
 0.49756243264E+01 0.60096870801E+01 0.71657418568E+01 0.84019200024E+01 0.96330760058E+01
 0.10651601795E+02 0.11231785382E+02 0.11231757856E+02 0.10651593313E+02 0.96331407942E+01
 0.84019411559E+01 0.71656388341E+01 0.43716378787E+01 0.38028335922E+01 0.33629045691E+01
 0.30409843703E+01 0.28120973032E+01 0.26512105803E+01 0.25417413148E+01 0.24767125515E+01
 0.24549548187E+01 0.24766737056E+01 0.25416074706E+01 0.26509397673E+01 0.28118241904E+01
 0.30410213132E+01 0.33633986329E+01 0.38034597657E+01 0.43718489595E+01 0.50515672343E+01
 0.57903473394E+01 0.65054633030E+01 0.71061188454E+01 0.75158790517E+01 0.76625734913E+01
 0.75156234271E+01 0.71059232858E+01 0.65056507694E+01 0.57908598300E+01 0.50519239692E+01
 0.35070322288E+01 0.32408817574E+01 0.30445586480E+01 0.29063795404E+01 0.28118107638E+01
 0.27487382197E+01 0.27096415380E+01 0.26908716477E+01 0.26909492653E+01 0.27097225090E+01
 0.27486613404E+01 0.28117058429E+01 0.29064057611E+01 0.30446040625E+01 0.32408120488E+01
 0.35069780030E+01 0.38448542265E+01 0.42391337158E+01 0.46546926444E+01 0.50402770231E+01
 0.53389055727E+01 0.55019988725E+01 0.55019412642E+01 0.53388507037E+01 0.50403314415E+01
 0.46547203387E+01 0.42390216914E+01 0.38447561986E+01 0.31503797509E+01 0.30785126248E+01
 0.30449686757E+01 0.30408972106E+01 0.30558710969E+01 0.30786575009E+01 0.30981112978E+01
 0.31056549938E+01 0.30981642743E+01 0.30789516455E+01 0.30562825142E+01 0.30409690685E+01
 0.30445163300E+01 0.30778891159E+01 0.31500392381E+01 0.32655498861E+01 0.34217035274E+01
 0.36062582233E+01 0.37973705268E+01 0.39664079153E+01 0.40836163359E+01 0.41258439324E+01
 0.40840232671E+01 0.39667101569E+01 0.37972092063E+01 0.36057792501E+01 0.34212771665E+01
 0.32654516838E+01 0.31500723131E+01 0.32408919949E+01 0.33634764946E+01 0.35037001056E+01
 0.36411944299E+01 0.37521108315E+01 0.38143648626E+01 0.38143842503E+01 0.37521377442E+01
 0.36411914913E+01 0.35036876485E+01 0.33634701966E+01 0.32408568298E+01 0.31500005908E+01
 0.30978629383E+01 0.30842138415E+01 0.31028492107E+01 0.31435215554E+01 0.31934265294E+01
 0.32383291145E+01 0.32649264025E+01 0.32649016528E+01 0.32383043644E+01 0.31934577586E+01
 0.31435677296E+01 0.31028570748E+01 0.30842167977E+01 0.30979138369E+01 0.35065795261E+01
 0.38029003240E+01 0.41345140548E+01 0.44657434027E+01 0.47506039538E+01 0.49436386238E+01
 0.50118933113E+01 0.49433981069E+01 0.47501874502E+01 0.44654327685E+01 0.41346521207E+01
 0.38034649978E+01 0.35071132662E+01 0.32655999590E+01 0.30841291361E+01 0.29567606776E+01
 0.28719118125E+01 0.28178906492E+01 0.27858006985E+01 0.27693633520E+01 0.27643097154E+01
 0.27690993267E+01 0.27855145698E+01 0.28178457874E+01 0.28722046845E+01 0.29572583464E+01
 0.30845051289E+01 0.32655231067E+01 0.43717505023E+01 0.49756449888E+01 0.56001122214E+01
 0.61683614371E+01 0.66008343636E+01 0.68348667538E+01 0.68348250972E+01 0.66008167215E+01
 0.61684665827E+01 0.56002081311E+01 0.49756205941E+01 0.43717355522E+01 0.38448523478E+01
 0.34217875207E+01 0.31028086022E+01 0.28717832336E+01 0.27076270311E+01 0.25930736050E+01
 0.25186313331E+01 0.24814610534E+01 0.24815223614E+01 0.25186844505E+01 0.25929908757E+01
 0.27075517565E+01 0.28718574760E+01 0.31028975562E+01 0.34217314491E+01 0.38447580773E+01
 0.60101659207E+01 0.70318235493E+01 0.80476381284E+01 0.89627175774E+01 0.96119638271E+01
 0.98479431508E+01 0.96125197382E+01 0.89632711672E+01 0.80477364394E+01 0.70314945706E+01
 0.60096876407E+01 0.50515533183E+01 0.42390452507E+01 0.36062218794E+01 0.31435629652E+01
 0.28178799804E+01 0.25929906231E+01 0.24427081075E+01 0.23543144259E+01 0.23247794382E+01
 0.23543040210E+01 0.24428825899E+01 0.25932449268E+01 0.28178119730E+01 0.31430827394E+01
 0.36057407654E+01 0.42389683974E+01 0.50518836580E+01 0.87972637422E+01 0.10685458955E+02
 0.12597839982E+02 0.14170977683E+02 0.15059774903E+02 0.15059604515E+02 0.14170784962E+02
 0.12597943965E+02 0.10685563680E+02 0.87970910222E+01 0.71656346290E+01 0.57905011817E+01
 0.46548126790E+01 0.37972525816E+01 0.31933537268E+01 0.27859672914E+01 0.25187486088E+01
 0.23541958220E+01 0.22747907932E+01 0.22749661371E+01 0.23543737377E+01 0.25185745358E+01
 0.27857767438E+01 0.31935045260E+01 0.37974119066E+01 0.46546232335E+01 0.57902774192E+01
 0.71657460619E+01 0.14207101747E+02 0.17692011738E+02 0.20825167743E+02 0.22998516296E+02
 0.23775260714E+02 0.22997951021E+02 0.20824616744E+02 0.17691979594E+02 0.14207540046E+02
 0.10977677749E+02 0.84016437938E+01 0.65054757848E+01 0.50406456794E+01 0.39664507004E+01
 0.32380113936E+01 0.27693706018E+01 0.24818231443E+01 0.23247849237E+01 0.22745689229E+01
 0.23248249555E+01 0.24817289544E+01 0.27691440677E+01 0.32379234974E+01 0.39666935737E+01
 0.50410712842E+01 0.65057290807E+01 0.84014985955E+01 0.10977200814E+02 0.23832879056E+02
 0.29133807898E+02 0.33289272060E+02 0.35569772682E+02 0.35570425579E+02 0.33289977001E+02
 0.29133283015E+02 0.23832286505E+02 0.18292645514E+02 0.13374449931E+02 0.96327777943E+01
 0.71057261593E+01 0.53391901862E+01 0.40839733634E+01 0.32645944825E+01 0.27639034384E+01
 0.24818088536E+01 0.23546607635E+01 0.23539675127E+01 0.24810911810E+01 0.27645687644E+01
 0.32653371760E+01 0.40833645053E+01 0.53384556769E+01 0.71062881474E+01 0.96335118782E+01
 0.13374015530E+02 0.18292127346E+02 0.38091695739E+02 0.44870343166E+02 0.49438299208E+02
 0.51050905099E+02 0.49438988397E+02 0.44871060712E+02 0.38091747582E+02 0.30170223140E+02
 0.22305016758E+02 0.15577964102E+02 0.10651585997E+02 0.75152840983E+01 0.55019176587E+01
 0.41263799854E+01 0.32649281560E+01 0.27685091572E+01 0.25186091826E+01 0.24434549868E+01
 0.25186790615E+01 0.27685604831E+01 0.32649887333E+01 0.41265066011E+01 0.55019338391E+01
 0.75149730358E+01 0.10651171762E+02 0.15577997098E+02 0.22305643107E+02 0.30170850507E+02
 0.56327652180E+02 0.63959025269E+02 0.68131040675E+02 0.68130632722E+02 0.63959011366E+02
 0.56328901506E+02 0.46434592255E+02 0.35685907085E+02 0.25510995043E+02 0.17132176365E+02
 0.11232178115E+02 0.76622092921E+01 0.55015607530E+01 0.40844227027E+01 0.32387315222E+01
 0.27851630249E+01 0.25926070903E+01 0.25936432282E+01 0.27862767042E+01 0.32378025429E+01
 0.40832686239E+01 0.55023444830E+01 0.76633176532E+01 0.11231515128E+02 0.17131232870E+02
 0.25511786818E+02 0.35686996166E+02 0.46433930850E+02 0.77482310773E+02 0.85241143582E+02
 0.88012351507E+02 0.85241551318E+02 0.77482922459E+02 0.66132645469E+02 0.52896199106E+02
 0.39438880820E+02 0.27289949170E+02 0.17692424165E+02 0.11232275952E+02 0.75156319339E+01
 0.53384416703E+01 0.39667737891E+01 0.31939351243E+01 0.28178490622E+01 0.27071342538E+01
 0.28178360805E+01 0.31939016949E+01 0.39666895987E+01 0.53383119896E+01 0.75155708195E+01
 0.11232426299E+02 0.17692776990E+02 0.27290297337E+02 0.39438977788E+02 0.52895940214E+02
 0.66132103979E+02 0.10036571207E+03 0.10723527354E+03 0.10723556198E+03 0.10036605972E+03
 0.88143399480E+02 0.72796571824E+02 0.56429931359E+02 0.40769248728E+02 0.27290251348E+02
 0.17131773602E+02 0.10651848433E+02 0.71060682154E+01 0.50400982014E+01 0.37970640497E+01
 0.31437908339E+01 0.28723389885E+01 0.28716261146E+01 0.31429338228E+01 0.37975577980E+01
 0.50409741474E+01 0.71057702938E+01 0.10651010388E+02 0.17131873438E+02 0.27290976133E+02
 0.40769372315E+02 0.56429555927E+02 0.72796506851E+02 0.88143451429E+02 0.12302490695E+03
 0.12741448437E+03 0.12302457352E+03 0.11100276692E+03 0.94084532459E+02 0.75166546087E+02
 0.56430009218E+02 0.39439295537E+02 0.25511528388E+02 0.15577438324E+02 0.96331555304E+01
 0.65056754302E+01 0.46546534109E+01 0.36057396732E+01 0.31029146922E+01 0.29572928985E+01
 0.31028421381E+01 0.36057375323E+01 0.46547545476E+01 0.65057680511E+01 0.96331849976E+01
 0.15577421468E+02 0.25511396968E+02 0.39438994077E+02 0.56429734159E+02 0.75166619130E+02
 0.94084998465E+02 0.11100332072E+03 0.14203588976E+03 0.14203634687E+03 0.13208901071E+03
 0.11486468523E+03 0.94084144733E+02 0.72796533417E+02 0.52896374616E+02 0.35686867781E+02
 0.22305094520E+02 0.13373964086E+02 0.84020944531E+01 0.57907727270E+01 0.42389146154E+01
 0.34214338984E+01 0.30844045201E+01 0.30844338582E+01 0.34216304698E+01 0.42391320745E+01
 0.57905379441E+01 0.84016538266E+01 0.13374202462E+02 0.22305822975E+02 0.35686756731E+02
 0.52895298778E+02 0.72796142714E+02 0.94085156378E+02 0.11486559123E+03 0.13208868757E+03
 0.15309788602E+03 0.14742871630E+03 0.13208925390E+03 0.11100332850E+03 0.88142871775E+02
 0.66132100985E+02 0.46434762192E+02 0.30171473273E+02 0.18292087783E+02 0.10977193845E+02
 0.71660575108E+01 0.50519294819E+01 0.38444472927E+01 0.32655233874E+01 0.30982956565E+01
 0.32655233874E+01 0.38444472927E+01 0.50519294819E+01 0.71660575108E+01 0.10977193845E+02
 0.18292087783E+02 0.30171473273E+02 0.46434762192E+02 0.66132100985E+02 0.88142871775E+02
 0.11100332850E+03 0.13208925390E+03 0.14742871630E+03 0.13692255219E+03 0.12302414027E+03
 0.10374873653E+03 0.82597200899E+02 0.61996825547E+02 0.43455664896E+02 0.28185259436E+02
 0.17133532012E+02 0.10405741634E+02 0.68946391564E+01 0.48922033634E+01 0.37520040936E+01
 0.32052782135E+01 0.30470614478E+01 0.32052943535E+01 0.37520203852E+01 0.48922023920E+01
 0.68946187453E+01 0.10405718516E+02 0.17133526512E+02 0.28185274335E+02 0.43455674241E+02
 0.61996788943E+02 0.82597088421E+02 0.10374856121E+03 0.12302395686E+03 0.13692243418E+03
 0.14203630066E+03 0.12302444866E+03 0.10723477673E+03 0.88011496488E+02 0.68131136958E+02
 0.49439193156E+02 0.33289828727E+02 0.20824902851E+02 0.12597439933E+02 0.80478014127E+01
 0.56005920688E+01 0.41346006135E+01 0.33630373981E+01 0.30446236033E+01 0.30448196525E+01
 0.33634101859E+01 0.41346697332E+01 0.56001832734E+01 0.80474890334E+01 0.12597846476E+02
 0.20825563059E+02 0.33289645798E+02 0.49438171066E+02 0.68130547208E+02 0.88011957685E+02
 0.10723539857E+03 0.12302443133E+03 0.13208875668E+03 0.13208894160E+03 0.10374865150E+03
 0.88011572253E+02 0.70300986693E+02 0.52694017137E+02 0.36750776146E+02 0.23771323206E+02