   1   1   0   0
  0.2037171E+02  0.3065591E-09  0.3065591E-09  0.3065591E-09  0.5000000E-15
  1.000000000000000E-004
  CAR 
 unknown system                          
     26.23418006     -2.25619933  301      6.21309967      1.00000000
     -2.256  0.0000E+00  0.0000E+00
     -2.161  0.0000E+00  0.0000E+00
     -2.066  0.0000E+00  0.0000E+00
     -1.971  0.0000E+00  0.0000E+00
     -1.876 -0.1988E-30 -0.1888E-31
     -1.781 -0.3274E-27 -0.3111E-28
     -1.686 -0.3422E-24 -0.3253E-25
     -1.591 -0.2268E-21 -0.2157E-22
     -1.496 -0.9522E-19 -0.9065E-20
     -1.401 -0.2455E-16 -0.2340E-17
     -1.307 -0.4101E-14 -0.3918E-15
     -1.212 -0.4315E-12 -0.4137E-13
     -1.117 -0.2849E-10 -0.2747E-11
     -1.022 -0.1175E-08 -0.1144E-09
     -0.927 -0.3003E-07 -0.2966E-08
     -0.832 -0.4689E-06 -0.4749E-07
     -0.737 -0.4358E-05 -0.4614E-06
     -0.642 -0.2277E-04 -0.2623E-05
     -0.547 -0.5578E-04 -0.7921E-05
     -0.452  0.2965E-05 -0.7639E-05
     -0.357  0.3349E-03  0.2417E-04
     -0.262  0.7848E-03  0.9870E-04
     -0.167  0.1101E-02  0.2032E-03
     -0.072  0.1798E-02  0.3740E-03
      0.023  0.2868E-02  0.6464E-03
      0.118  0.3184E-02  0.9487E-03
      0.213  0.3037E-02  0.1237E-02
      0.308  0.3193E-02  0.1540E-02
      0.403  0.3301E-02  0.1854E-02
      0.498  0.3342E-02  0.2171E-02
      0.593  0.3519E-02  0.2506E-02
      0.688  0.5878E-02  0.3064E-02
      0.783  0.1502E-01  0.4491E-02
      0.878  0.3485E-01  0.7800E-02
      0.973  0.6593E-01  0.1406E-01
      1.068  0.1042E+00  0.2395E-01
      1.163  0.1376E+00  0.3702E-01
      1.258  0.1499E+00  0.5126E-01
      1.353  0.1382E+00  0.6438E-01
      1.448  0.1168E+00  0.7547E-01
      1.543  0.1026E+00  0.8522E-01
      1.637  0.1037E+00  0.9507E-01
      1.732  0.1134E+00  0.1058E+00
      1.827  0.1185E+00  0.1171E+00
      1.922  0.1229E+00  0.1288E+00
      2.017  0.1403E+00  0.1421E+00
      2.112  0.1636E+00  0.1576E+00
      2.207  0.1690E+00  0.1737E+00
      2.302  0.1513E+00  0.1881E+00
      2.397  0.1316E+00  0.2005E+00
      2.492  0.1271E+00  0.2126E+00
      2.587  0.1337E+00  0.2253E+00
      2.682  0.1402E+00  0.2386E+00
      2.777  0.1417E+00  0.2521E+00
      2.872  0.1368E+00  0.2651E+00
      2.967  0.1262E+00  0.2771E+00
      3.062  0.1243E+00  0.2889E+00
      3.157  0.1455E+00  0.3027E+00
      3.252  0.1695E+00  0.3188E+00
      3.347  0.1525E+00  0.3333E+00
      3.442  0.9067E-01  0.3419E+00
      3.537  0.2960E-01  0.3447E+00
      3.632  0.2046E-02  0.3449E+00
      3.727  0.2261E-02  0.3451E+00
      3.822  0.1027E-01  0.3461E+00
      3.917  0.1334E-01  0.3473E+00
      4.012  0.1198E-01  0.3485E+00
      4.107  0.9156E-02  0.3493E+00
      4.202  0.5464E-02  0.3499E+00
      4.297  0.3031E-02  0.3501E+00
      4.392  0.2177E-02  0.3504E+00
      4.487  0.2652E-02  0.3506E+00
      4.581  0.5932E-02  0.3512E+00
      4.676  0.1132E-01  0.3522E+00
      4.771  0.1579E-01  0.3537E+00
      4.866  0.1620E-01  0.3553E+00
      4.961  0.1118E-01  0.3563E+00
      5.056  0.4311E-02  0.3568E+00
      5.151  0.2128E-02  0.3570E+00
      5.246  0.5894E-02  0.3575E+00
      5.341  0.8947E-02  0.3584E+00
      5.436  0.7167E-02  0.3590E+00
      5.531  0.6118E-02  0.3596E+00
      5.626  0.9930E-02  0.3606E+00
      5.721  0.1297E-01  0.3618E+00
      5.816  0.1040E-01  0.3628E+00
      5.911  0.7484E-02  0.3635E+00
      6.006  0.9666E-02  0.3644E+00
      6.101  0.1175E-01  0.3655E+00
      6.196  0.1016E-01  0.3665E+00
      6.291  0.1056E-01  0.3675E+00
      6.386  0.1186E-01  0.3686E+00
      6.481  0.7668E-02  0.3694E+00
      6.576  0.1809E-02  0.3695E+00
      6.671  0.1977E-02  0.3697E+00
      6.766  0.9133E-02  0.3706E+00
      6.861  0.1752E-01  0.3722E+00
      6.956  0.1948E-01  0.3741E+00
      7.051  0.1439E-01  0.3755E+00
      7.146  0.9646E-02  0.3764E+00
      7.241  0.9024E-02  0.3772E+00
      7.336  0.9253E-02  0.3781E+00
      7.431  0.8475E-02  0.3789E+00
      7.525  0.7592E-02  0.3796E+00
      7.620  0.7298E-02  0.3803E+00
      7.715  0.6857E-02  0.3810E+00
      7.810  0.5818E-02  0.3815E+00
      7.905  0.6499E-02  0.3822E+00
      8.000  0.9954E-02  0.3831E+00
      8.095  0.1295E-01  0.3843E+00
      8.190  0.1282E-01  0.3855E+00
      8.285  0.1093E-01  0.3866E+00
      8.380  0.9420E-02  0.3875E+00
      8.475  0.9154E-02  0.3883E+00
      8.570  0.9731E-02  0.3893E+00
      8.665  0.8889E-02  0.3901E+00
      8.760  0.7250E-02  0.3908E+00
      8.855  0.8177E-02  0.3916E+00
      8.950  0.9061E-02  0.3924E+00
      9.045  0.7072E-02  0.3931E+00
      9.140  0.6847E-02  0.3938E+00
      9.235  0.1170E-01  0.3949E+00
      9.330  0.1628E-01  0.3964E+00
      9.425  0.1342E-01  0.3977E+00
      9.520  0.7390E-02  0.3984E+00
      9.615  0.9631E-02  0.3993E+00
      9.710  0.1819E-01  0.4010E+00
      9.805  0.1924E-01  0.4029E+00
      9.900  0.1228E-01  0.4040E+00
      9.995  0.9545E-02  0.4049E+00
     10.090  0.1153E-01  0.4060E+00
     10.185  0.9728E-02  0.4070E+00
     10.280  0.6698E-02  0.4076E+00
     10.375  0.9178E-02  0.4085E+00
     10.470  0.1289E-01  0.4097E+00
     10.564  0.1246E-01  0.4109E+00
     10.659  0.1176E-01  0.4120E+00
     10.754  0.1321E-01  0.4132E+00
     10.849  0.1277E-01  0.4145E+00
     10.944  0.9216E-02  0.4153E+00
     11.039  0.5340E-02  0.4158E+00
     11.134  0.4271E-02  0.4162E+00
     11.229  0.7370E-02  0.4169E+00
     11.324  0.1275E-01  0.4182E+00
     11.419  0.1733E-01  0.4198E+00
     11.514  0.1836E-01  0.4215E+00
     11.609  0.1403E-01  0.4229E+00
     11.704  0.7218E-02  0.4236E+00
     11.799  0.5308E-02  0.4241E+00
     11.894  0.1091E-01  0.4251E+00
     11.989  0.1797E-01  0.4268E+00
     12.084  0.2041E-01  0.4287E+00
     12.179  0.1741E-01  0.4304E+00
     12.274  0.1144E-01  0.4315E+00
     12.369  0.7403E-02  0.4322E+00
     12.464  0.7858E-02  0.4329E+00
     12.559  0.9749E-02  0.4339E+00
     12.654  0.1187E-01  0.4350E+00
     12.749  0.1707E-01  0.4366E+00
     12.844  0.2291E-01  0.4388E+00
     12.939  0.2386E-01  0.4411E+00
     13.034  0.2135E-01  0.4431E+00
     13.129  0.1833E-01  0.4448E+00
     13.224  0.1424E-01  0.4462E+00
     13.319  0.1083E-01  0.4472E+00
     13.414  0.9890E-02  0.4481E+00
     13.508  0.8455E-02  0.4489E+00
     13.603  0.6658E-02  0.4496E+00
     13.698  0.9171E-02  0.4504E+00
     13.793  0.1449E-01  0.4518E+00
     13.888  0.1888E-01  0.4536E+00
     13.983  0.2229E-01  0.4557E+00
     14.078  0.2262E-01  0.4579E+00
     14.173  0.1879E-01  0.4597E+00
     14.268  0.1274E-01  0.4609E+00
     14.363  0.8873E-02  0.4617E+00
     14.458  0.1275E-01  0.4629E+00
     14.553  0.2119E-01  0.4649E+00
     14.648  0.2482E-01  0.4673E+00
     14.743  0.2190E-01  0.4694E+00
     14.838  0.1823E-01  0.4711E+00
     14.933  0.1615E-01  0.4726E+00
     15.028  0.1295E-01  0.4739E+00
     15.123  0.8347E-02  0.4747E+00
     15.218  0.6464E-02  0.4753E+00
     15.313  0.1315E-01  0.4765E+00
     15.408  0.2657E-01  0.4791E+00
     15.503  0.3184E-01  0.4821E+00
     15.598  0.2304E-01  0.4843E+00
     15.693  0.1526E-01  0.4857E+00
     15.788  0.1776E-01  0.4874E+00
     15.883  0.2031E-01  0.4893E+00
     15.978  0.1687E-01  0.4909E+00
     16.073  0.1576E-01  0.4924E+00
     16.168  0.1995E-01  0.4943E+00
     16.263  0.2042E-01  0.4963E+00
     16.358  0.1403E-01  0.4976E+00
     16.452  0.9968E-02  0.4985E+00
     16.547  0.1373E-01  0.4998E+00
     16.642  0.2062E-01  0.5018E+00
     16.737  0.2448E-01  0.5041E+00
     16.832  0.2425E-01  0.5064E+00
     16.927  0.2321E-01  0.5086E+00
     17.022  0.2234E-01  0.5108E+00
     17.117  0.2056E-01  0.5127E+00
     17.212  0.2164E-01  0.5148E+00
     17.307  0.2630E-01  0.5173E+00
     17.402  0.2502E-01  0.5196E+00
     17.497  0.1576E-01  0.5211E+00
     17.592  0.9732E-02  0.5221E+00
     17.687  0.1274E-01  0.5233E+00
     17.782  0.1977E-01  0.5251E+00
     17.877  0.2488E-01  0.5275E+00
     17.972  0.2491E-01  0.5299E+00
     18.067  0.1890E-01  0.5317E+00
     18.162  0.1054E-01  0.5327E+00
     18.257  0.5902E-02  0.5332E+00
     18.352  0.6549E-02  0.5339E+00
     18.447  0.1058E-01  0.5349E+00
     18.542  0.1719E-01  0.5365E+00
     18.637  0.2362E-01  0.5387E+00
     18.732  0.2504E-01  0.5411E+00
     18.827  0.2128E-01  0.5431E+00
     18.922  0.1629E-01  0.5447E+00
     19.017  0.1365E-01  0.5460E+00
     19.112  0.1440E-01  0.5473E+00
     19.207  0.1639E-01  0.5489E+00
     19.302  0.1590E-01  0.5504E+00
     19.396  0.1319E-01  0.5517E+00
     19.491  0.1115E-01  0.5527E+00
     19.586  0.9694E-02  0.5536E+00
     19.681  0.1040E-01  0.5546E+00
     19.776  0.1721E-01  0.5563E+00
     19.871  0.2450E-01  0.5586E+00
     19.966  0.2218E-01  0.5607E+00
     20.061  0.1408E-01  0.5620E+00
     20.156  0.9598E-02  0.5629E+00
     20.251  0.9540E-02  0.5639E+00
     20.346  0.1340E-01  0.5651E+00
     20.441  0.1934E-01  0.5670E+00
     20.536  0.2107E-01  0.5690E+00
     20.631  0.1903E-01  0.5708E+00
     20.726  0.1767E-01  0.5725E+00
     20.821  0.1538E-01  0.5739E+00
     20.916  0.1104E-01  0.5750E+00
     21.011  0.7009E-02  0.5756E+00
     21.106  0.5241E-02  0.5761E+00
     21.201  0.7018E-02  0.5768E+00
     21.296  0.1017E-01  0.5778E+00
     21.391  0.1122E-01  0.5788E+00
     21.486  0.1027E-01  0.5798E+00
     21.581  0.9860E-02  0.5807E+00
     21.676  0.1187E-01  0.5819E+00
     21.771  0.1436E-01  0.5832E+00
     21.866  0.1529E-01  0.5847E+00
     21.961  0.1626E-01  0.5862E+00
     22.056  0.1639E-01  0.5878E+00
     22.151  0.1379E-01  0.5891E+00
     22.246  0.1261E-01  0.5903E+00
     22.340  0.1487E-01  0.5917E+00
     22.435  0.1401E-01  0.5930E+00
     22.530  0.8343E-02  0.5938E+00
     22.625  0.3476E-02  0.5941E+00
     22.720  0.1210E-02  0.5943E+00
     22.815  0.8075E-03  0.5943E+00
     22.910  0.1851E-02  0.5945E+00
     23.005  0.2736E-02  0.5948E+00
     23.100  0.3952E-02  0.5952E+00
     23.195  0.7723E-02  0.5959E+00
     23.290  0.1081E-01  0.5969E+00
     23.385  0.8549E-02  0.5977E+00
     23.480  0.4310E-02  0.5981E+00
     23.575  0.2685E-02  0.5984E+00
     23.670  0.2436E-02  0.5986E+00
     23.765  0.2555E-02  0.5989E+00
     23.860  0.3439E-02  0.5992E+00
     23.955  0.3488E-02  0.5995E+00
     24.050  0.2068E-02  0.5997E+00
     24.145  0.9523E-03  0.5998E+00
     24.240  0.8834E-03  0.5999E+00
     24.335  0.8389E-03  0.6000E+00
     24.430  0.3766E-03  0.6000E+00
     24.525  0.1266E-04  0.6000E+00
     24.620 -0.5461E-04  0.6000E+00
     24.715 -0.2269E-04  0.6000E+00
     24.810 -0.4355E-05  0.6000E+00
     24.905 -0.4688E-06  0.6000E+00
     25.000 -0.3003E-07  0.6000E+00
     25.095 -0.1175E-08  0.6000E+00
     25.190 -0.2849E-10  0.6000E+00
     25.285 -0.4315E-12  0.6000E+00
     25.379 -0.4101E-14  0.6000E+00
     25.474 -0.2496E-16  0.6000E+00
     25.569  0.0000E+00  0.6000E+00
     25.664  0.0000E+00  0.6000E+00
     25.759  0.0000E+00  0.6000E+00
     25.854  0.0000E+00  0.6000E+00
     25.949  0.0000E+00  0.6000E+00
     26.044  0.0000E+00  0.6000E+00
     26.139  0.0000E+00  0.6000E+00
     26.234  0.0000E+00  0.6000E+00
