    1    1   30    1
  0.2037171E+02  0.3065591E-09  0.3065591E-09  0.3065591E-09  0.5000000E-15
  1.000000000000000E-004
  CAR 
 unknown system                          
     11     60      9
 
  0.6250000E-01  0.6250000E-01  0.6250000E-01  0.3906250E-02
    1       -0.256199
    2        1.937432
    3        1.981151
    4        1.981151
    5        2.699060
    6        2.699060
    7       21.657976
    8       23.265227
    9       24.234180
 
  0.1875000E+00  0.6250000E-01  0.6250000E-01  0.1171875E-01
    1        0.270656
    2        1.847621
    3        2.088504
    4        2.112213
    5        2.607634
    6        2.767211
    7       19.914106
    8       21.513005
    9       23.561240
 
  0.3125000E+00  0.6250000E-01  0.6250000E-01  0.1171875E-01
    1        0.942122
    2        2.056237
    3        2.131224
    4        2.339336
    5        2.738747
    6        3.148422
    7       15.370155
    8       20.925428
    9       22.942856
 
  0.4375000E+00  0.6250000E-01  0.6250000E-01  0.1171875E-01
    1        0.897717
    2        1.968594
    3        2.021137
    4        3.054687
    5        3.102595
    6        4.847235
    7       11.147438
    8       20.581276
    9       21.833198
 
 -0.4375000E+00  0.6250000E-01  0.6250000E-01  0.1171875E-01
    1        0.847071
    2        1.917129
    3        1.990776
    4        3.131248
    5        3.292713
    6        6.365570
    7        9.085689
    8       20.733938
    9       21.684902
 
 -0.3125000E+00  0.6250000E-01  0.6250000E-01  0.1171875E-01
    1        0.930849
    2        1.994191
    3        2.072749
    4        2.773732
    5        3.157008
    6        4.050644
    7       12.474148
    8       21.264124
    9       21.715179
 
 -0.1875000E+00  0.6250000E-01  0.6250000E-01  0.1171875E-01
    1        0.809637
    2        1.947998
    3        2.154788
    4        2.155706
    5        2.756701
    6        2.867110
    7       16.883870
    8       21.926667
    9       22.336847
 
 -0.6250000E-01  0.6250000E-01  0.6250000E-01  0.1171875E-01
    1        0.018052
    2        1.860268
    3        2.061016
    4        2.062413
    5        2.620262
    6        2.745007
    7       21.194886
    8       22.351598
    9       23.215798
 
  0.1875000E+00  0.1875000E+00  0.6250000E-01  0.1171875E-01
    1        0.520658
    2        1.705889
    3        2.207195
    4        2.218189
    5        2.544255
    6        2.830256
    7       20.148021
    8       21.713808
    9       21.867842
 
  0.3125000E+00  0.1875000E+00  0.6250000E-01  0.2343750E-01
    1        1.183880
    2        1.604461
    3        2.128484
    4        2.409911
    5        2.799216
    6        3.238837
    7       17.291453
    8       19.163040
    9       22.005319
 
  0.4375000E+00  0.1875000E+00  0.6250000E-01  0.2343750E-01
    1        1.176305
    2        1.879096
    3        2.154098
    4        2.372237
    5        3.169208
    6        4.899482
    7       12.894917
    8       18.762778
    9       19.942181
 
 -0.4375000E+00  0.1875000E+00  0.6250000E-01  0.2343750E-01
    1        1.113341
    2        1.768871
    3        2.230590
    4        2.588902
    5        3.265838
    6        7.428323
    7        9.330505
    8       18.390903
    9       19.206861
 
 -0.3125000E+00  0.1875000E+00  0.6250000E-01  0.2343750E-01
    1        1.193791
    2        1.828354
    3        2.230698
    4        2.480750
    5        3.066952
    6        5.757544
    7       11.590390
    8       17.663901
    9       20.481866
 
 -0.1875000E+00  0.1875000E+00  0.6250000E-01  0.2343750E-01
    1        1.334336
    2        1.763155
    3        2.060709
    4        2.395702
    5        2.665082
    6        3.801998
    7       15.811064
    8       17.791891
    9       22.342275
 
 -0.6250000E-01  0.1875000E+00  0.6250000E-01  0.2343750E-01
    1        0.721750
    2        1.747486
    3        2.171542
    4        2.214893
    5        2.585583
    6        2.916363
    7       18.563842
    8       20.375194
    9       23.278399
 
  0.3125000E+00  0.3125000E+00  0.6250000E-01  0.1171875E-01
    1        1.214208
    2        1.309138
    3        2.592062
    4        2.692228
    5        3.071535
    6        3.506973
    7       17.667840
    8       18.682802
    9       19.290218
 
  0.4375000E+00  0.3125000E+00  0.6250000E-01  0.2343750E-01
    1        1.158777
    2        1.277395
    3        2.523970
    4        2.911235
    5        3.199205
    6        5.278783
    7       15.118914
    8       16.702436
    9       17.084762
 
 -0.4375000E+00  0.3125000E+00  0.6250000E-01  0.2343750E-01
    1        1.180173
    2        1.521121
    3        2.328589
    4        2.729281
    5        3.304023
    6        7.991029
    7       11.285784
    8       14.899444
    9       17.285295
 
 -0.3125000E+00  0.3125000E+00  0.6250000E-01  0.2343750E-01
    1        1.397232
    2        1.774633
    3        2.045429
    4        2.602358
    5        3.078701
    6        8.086791
    7       11.433446
    8       13.724989
    9       18.572808
 
 -0.1875000E+00  0.3125000E+00  0.6250000E-01  0.2343750E-01
    1        1.505750
    2        1.763820
    3        2.025761
    4        2.512852
    5        2.839381
    6        5.623852
    7       13.420894
    8       15.473014
    9       20.407413
 
 -0.6250000E-01  0.3125000E+00  0.6250000E-01  0.2343750E-01
    1        1.076684
    2        2.002489
    3        2.169378
    4        2.333590
    5        2.957954
    6        3.806702
    7       14.037795
    8       19.809450
    9       22.061583
 
  0.4375000E+00  0.4375000E+00  0.6250000E-01  0.1171875E-01
    1        0.921191
    2        0.979204
    3        3.135308
    4        3.184468
    5        3.323775
    6        6.336443
    7       13.991574
    8       15.853297
    9       16.603371
 
 -0.4375000E+00  0.4375000E+00  0.6250000E-01  0.2343750E-01
    1        0.936517
    2        1.034666
    3        2.983326
    4        3.131447
    5        3.406012
    6        8.380487
    7       12.114902
    8       14.204084
    9       15.826336
 
 -0.3125000E+00  0.4375000E+00  0.6250000E-01  0.2343750E-01
    1        1.139376
    2        1.444749
    3        2.432578
    4        2.846831
    5        3.286218
    6        9.721693
    7       10.914529
    8       12.771700
    9       16.958649
 
 -0.1875000E+00  0.4375000E+00  0.6250000E-01  0.2343750E-01
    1        1.295236
    2        1.695761
    3        2.312837
    4        2.424956
    5        3.193180
    6        8.220879
    7        9.687774
    8       15.991876
    9       18.784875
 
 -0.6250000E-01  0.4375000E+00  0.6250000E-01  0.2343750E-01
    1        0.965409
    2        1.879558
    3        2.085266
    4        2.851509
    5        3.238975
    6        6.034991
    7       10.075315
    8       19.822044
    9       20.675097
 
 -0.4375000E+00 -0.4375000E+00  0.6250000E-01  0.1171875E-01
    1        0.825006
    2        0.903829
    3        3.224034
    4        3.333743
    5        3.414588
    6        7.822067
    7       12.039755
    8       15.414854
    9       16.144344
 
 -0.3125000E+00 -0.4375000E+00  0.6250000E-01  0.2343750E-01
    1        1.024071
    2        1.115010
    3        2.789634
    4        3.095231
    5        3.316715
    6        6.842006
    7       13.927911
    8       14.774176
    9       16.234098
 
 -0.1875000E+00 -0.4375000E+00  0.6250000E-01  0.2343750E-01
    1        1.209070
    2        1.680840
    3        2.204058
    4        2.548256
    5        3.278406
    6        6.321147
    7       11.962968
    8       17.350145
    9       17.930754
 
 -0.3125000E+00 -0.3125000E+00  0.6250000E-01  0.1171875E-01
    1        1.078311
    2        1.124790
    3        2.921461
    4        2.945076
    5        3.200499
    6        4.772191
    7       16.369165
    8       16.797027
    9       17.474815
 
 -0.1875000E+00 -0.3125000E+00  0.6250000E-01  0.2343750E-01
    1        1.285846
    2        1.466475
    3        2.243518
    4        2.655030
    5        3.040004
    6        4.017136
    7       16.134649
    8       17.973435
    9       19.462816
 
 -0.1875000E+00 -0.1875000E+00  0.6250000E-01  0.1171875E-01
    1        1.058446
    2        1.510018
    3        2.318867
    4        2.436221
    5        2.766250
    6        2.943826
    7       18.901144
    8       20.135427
    9       21.451875
 
  0.1875000E+00  0.1875000E+00  0.1875000E+00  0.3906250E-02
    1        0.475627
    2        1.930743
    3        2.101969
    4        2.101969
    5        2.707333
    6        2.707333
    7       18.339102
    8       22.310791
    9       23.959976
 
  0.3125000E+00  0.1875000E+00  0.1875000E+00  0.1171875E-01
    1        1.047429
    2        1.775064
    3        2.180492
    4        2.260352
    5        2.524491
    6        3.235447
    7       17.107450
    8       19.030956
    9       23.845477
 
  0.4375000E+00  0.1875000E+00  0.1875000E+00  0.1171875E-01
    1        1.433723
    2        1.808124
    3        2.172494
    4        2.356766
    5        2.649753
    6        4.573040
    7       14.518272
    8       16.540262
    9       22.571213
 
 -0.4375000E+00  0.1875000E+00  0.1875000E+00  0.1171875E-01
    1        1.229610
    2        1.779556
    3        2.281690
    4        2.486410
    5        3.085732
    6        6.870811
    7       10.511341
    8       16.716715
    9       20.932849
 
 -0.3125000E+00  0.1875000E+00  0.1875000E+00  0.1171875E-01
    1        1.139101
    2        1.766365
    3        2.324775
    4        2.401896
    5        3.314069
    6        6.831122
    7       10.437069
    8       17.786969
    9       19.566345
 
 -0.1875000E+00  0.1875000E+00  0.1875000E+00  0.1171875E-01
    1        1.195772
    2        1.720512
    3        2.176001
    4        2.431897
    5        3.202346
    6        4.300558
    7       14.419715
    8       19.345912
    9       19.613021
 
  0.3125000E+00  0.3125000E+00  0.1875000E+00  0.1171875E-01
    1        1.103391
    2        1.911089
    3        2.074721
    4        2.266124
    5        3.044457
    6        3.295577
    7       15.572837
    8       20.746346
    9       21.402064
 
  0.4375000E+00  0.3125000E+00  0.1875000E+00  0.2343750E-01
    1        1.408875
    2        1.738148
    3        1.929614
    4        2.614768
    5        2.914412
    6        4.734686
    7       14.687077
    8       16.686404
    9       19.827876
 
 -0.4375000E+00  0.3125000E+00  0.1875000E+00  0.2343750E-01
    1        1.561774
    2        1.630299
    3        1.914412
    4        2.678482
    5        3.066416
    6        6.978893
    7       12.526797
    8       14.625434
    9       17.860218
 
 -0.3125000E+00  0.3125000E+00  0.1875000E+00  0.2343750E-01
    1        1.391518
    2        1.600229
    3        2.111242
    4        2.615295
    5        3.257229
    6        8.880481
    7       10.057152
    8       15.421272
    9       16.520403
 
 -0.1875000E+00  0.3125000E+00  0.1875000E+00  0.2343750E-01
    1        1.331595
    2        1.516874
    3        2.109562
    4        2.831638
    5        3.115261
    6        6.045481
    7       13.754837
    8       15.739406
    9       17.277780
 
  0.4375000E+00  0.4375000E+00  0.1875000E+00  0.1171875E-01
    1        1.140662
    2        1.478543
    3        2.429327
    4        2.635859
    5        3.310510
    6        5.658282
    7       13.453288
    8       17.006448
    9       18.219461
 
 -0.4375000E+00  0.4375000E+00  0.1875000E+00  0.2343750E-01
    1        1.222514
    2        1.345538
    3        2.331080
    4        2.940502
    5        3.285899
    6        7.642196
    7       13.030995
    8       14.539737
    9       15.412527
 
 -0.3125000E+00  0.4375000E+00  0.1875000E+00  0.2343750E-01
    1        1.340893
    2        1.588311
    3        2.010774
    4        2.761339
    5        3.402500
    6       10.368497
    7       11.493674
    8       12.851975
    9       14.170928
 
 -0.1875000E+00  0.4375000E+00  0.1875000E+00  0.2343750E-01
    1        1.445123
    2        1.593781
    3        1.945221
    4        2.755251
    5        3.271629
    6        8.604509
    7       11.869684
    8       13.962992
    9       15.504187
 
 -0.4375000E+00 -0.4375000E+00  0.1875000E+00  0.1171875E-01
    1        0.986619
    2        1.204161
    3        2.814282
    4        3.001074
    5        3.332730
    6        8.878761
    7       11.980032
    8       12.860860
    9       17.020087
 
 -0.3125000E+00 -0.4375000E+00  0.1875000E+00  0.2343750E-01
    1        1.138327
    2        1.272169
    3        2.498977
    4        2.937155
    5        3.403273
    6        9.292163
    7       12.176009
    8       13.083284
    9       14.938436
 
 -0.3125000E+00 -0.3125000E+00  0.1875000E+00  0.1171875E-01
    1        1.050417
    2        1.295606
    3        2.670075
    4        2.844720
    5        3.350696
    6        7.269952
    7       12.707186
    8       14.562127
    9       17.428649
 
  0.3125000E+00  0.3125000E+00  0.3125000E+00  0.3906250E-02
    1        0.896170
    2        2.061920
    3        2.061920
    4        2.965196
    5        2.965196
    6        3.062538
    7       13.819378
    8       21.690447
    9       23.172504
 
  0.4375000E+00  0.3125000E+00  0.3125000E+00  0.1171875E-01
    1        1.110086
    2        1.938775
    3        2.161744
    4        2.582877
    5        2.888113
    6        4.623762
    7       12.708473
    8       18.652192
    9       22.171614
 
 -0.4375000E+00  0.3125000E+00  0.3125000E+00  0.1171875E-01
    1        1.454511
    2        1.804006
    3        2.123577
    4        2.470308
    5        2.909554
    6        6.728862
    7       12.337313
    8       14.468705
    9       20.761768
 
 -0.3125000E+00  0.3125000E+00  0.3125000E+00  0.1171875E-01
    1        1.224549
    2        1.666351
    3        2.260653
    4        2.705413
    5        3.155049
    6        9.400163
    7       10.476484
    8       13.106429
    9       18.622235
 
  0.4375000E+00  0.4375000E+00  0.3125000E+00  0.1171875E-01
    1        1.025844
    2        1.887774
    3        2.164612
    4        2.564937
    5        3.280428
    6        5.316885
    7       11.341361
    8       20.169765
    9       20.499513
 
 -0.4375000E+00  0.4375000E+00  0.3125000E+00  0.2343750E-01
    1        1.309605
    2        1.684614
    3        2.226087
    4        2.474568
    5        3.202054
    6        7.191417
    7       10.695135
    8       16.856424
    9       18.051890
 
 -0.3125000E+00  0.4375000E+00  0.3125000E+00  0.2343750E-01
    1        1.366742
    2        1.651246
    3        2.023060
    4        2.712242
    5        3.270244
    6        9.695999
    7       10.751702
    8       13.236459
    9       16.205271
 
 -0.4375000E+00 -0.4375000E+00  0.3125000E+00  0.1171875E-01
    1        1.212114
    2        1.684435
    3        2.302874
    4        2.525755
    5        3.257786
    6        8.556047
    7        9.806661
    8       15.334039
    9       18.937605
 
  0.4375000E+00  0.4375000E+00  0.4375000E+00  0.3906250E-02
    1        0.810471
    2        1.961802
    3        1.961802
    4        3.246657
    5        3.246657
    6        5.459233
    7        9.896134
    8       21.045300
    9       22.365811
 
 -0.4375000E+00  0.4375000E+00  0.4375000E+00  0.1171875E-01
    1        0.995708
    2        1.844947
    3        2.103979
    4        2.847503
    5        3.233347
    6        6.946597
    7        9.208316
    8       19.006850
    9       21.276307
