 vasp.5.3.5 31Mar14 (build Jan 09 2015 16:57:47) complex                        
  
 executed on             LinuxIFC date 2015.03.24  14:26:01
 serial version


--------------------------------------------------------------------------------------------------------


 INCAR:
 POTCAR:    PAW_PBE Ag 02Apr2005                  
 POTCAR:    PAW_PBE Ag 02Apr2005                  
   VRHFIN =Ag : s1 d10                                                          
   LEXCH  = PE                                                                  
   EATOM  =  1037.2675 eV,   76.2370 Ry                                         
                                                                                
   TITEL  = PAW_PBE Ag 02Apr2005                                                
   LULTRA =        F    use ultrasoft PP ?                                      
   IUNSCR =        1    unscreen: 0-lin 1-nonlin 2-no                           
   RPACOR =    2.000    partial core radius                                     
   POMASS =  107.868; ZVAL   =   11.000    mass and valenz                      
   RCORE  =    2.500    outmost cutoff radius                                   
   RWIGS  =    2.840; RWIGS  =    1.503    wigner-seitz radius (au A)           
   ENMAX  =  249.844; ENMIN  =  187.383 eV                                      
   ICORE  =        3    local potential                                         
   LCOR   =        T    correct aug charges                                     
   LPAW   =        T    paw PP                                                  
   EAUG   =  412.496                                                            
   DEXC   =    0.000                                                            
   RMAX   =    2.560    core radius for proj-oper                               
   RAUG   =    1.300    factor for augmentation sphere                          
   RDEP   =    2.576    radius for radial grids                                 
   RDEPT  =    2.072    core radius for aug-charge                              
                                                                                
   Atomic configuration                                                         
   12 entries                                                                   
     n  l   j            E        occ.                                          
     1  0  0.50    -25324.9161   2.0000                                         
     2  0  0.50     -3728.5341   2.0000                                         
     2  1  1.50     -3344.0404   6.0000                                         
     3  0  0.50      -683.5581   2.0000                                         
     3  1  1.50      -557.3225   6.0000                                         
     3  2  2.50      -358.3853  10.0000                                         
     4  0  0.50       -95.0341   2.0000                                         
     4  1  1.50       -58.5511   6.0000                                         
     4  2  2.50        -7.4440  10.0000                                         
     5  0  0.50        -4.4045   1.0000                                         
     5  1  0.50        -1.3606   0.0000                                         
     4  3  2.50        -1.3606   0.0000                                         
   Description                                                                  
     l       E           TYP  RCUT    TYP  RCUT                                 
     2     -7.4439781     23  2.400                                             
     2     -8.8045607     23  2.400                                             
     0     -4.4044681     23  2.400                                             
     0      1.9520038     23  2.400                                             
     1     -1.3605826     23  2.500                                             
     1     27.2116520     23  2.500                                             
     3     -4.0817478     23  2.400                                             
  local pseudopotential read in
  partial core-charges read in
  partial kinetic energy density read in
  atomic valenz-charges read in
  non local Contribution for L=           2  read in
    real space projection operators read in
  non local Contribution for L=           2  read in
    real space projection operators read in
  non local Contribution for L=           0  read in
    real space projection operators read in
  non local Contribution for L=           0  read in
    real space projection operators read in
  non local Contribution for L=           1  read in
    real space projection operators read in
  non local Contribution for L=           1  read in
    real space projection operators read in
    PAW grid and wavefunctions read in
 
   number of l-projection  operators is LMAX  =           6
   number of lm-projection operators is LMMAX =          18
 
  PAW_PBE Ag 02Apr2005                  :
 energy of atom  1       EATOM=-1037.2675
 kinetic energy error for atom=    0.0272 (will be added to EATOM!!)
 
 
 POSCAR: Ag                                      
  positions in cartesian coordinates
  No initial velocities read in
 exchange correlation table for  LEXCH =        8
   RHO(1)=    0.500       N(1)  =     2000
   RHO(2)=  100.500       N(2)  =     4000

 VTST: version 3.1, (03/28/14)

 CHAIN: initializing optimizer
 
 OPT: Using VASP Conjugate-Gradient optimizer
 CHAIN: Read ICHAIN            0
 
 POSCAR: Ag                                      
  positions in cartesian coordinates
  No initial velocities read in
 


--------------------------------------------------------------------------------------------------------


 ion  position               nearest neighbor table
   1  0.000  0.000  0.000-
 
  LATTYP: Found a face centered cubic cell.
 ALAT       =     4.3354000000
  
  Lattice vectors:
  
 A1 = (   3.0655907392,   0.0000000000,   0.0000000000)
 A2 = (   1.5327953696,   2.6548794577,   0.0000000000)
 A3 = (   1.5327953696,   0.8849598192,   2.5030443570)


Analysis of symmetry for initial positions (statically):
=====================================================================
 Subroutine PRICEL returns:
 Original cell was already a primitive cell.
 

 Routine SETGRP: Setting up the symmetry group for a 
 face centered cubic supercell.


 Subroutine GETGRP returns: Found 48 space group operations
 (whereof 48 operations were pure point group operations)
 out of a pool of 48 trial point group operations.


The static configuration has the point symmetry O_h .


Analysis of symmetry for dynamics (positions and initial velocities):
=====================================================================
 Subroutine PRICEL returns:
 Original cell was already a primitive cell.
 

 Routine SETGRP: Setting up the symmetry group for a 
 face centered cubic supercell.


 Subroutine GETGRP returns: Found 48 space group operations
 (whereof 48 operations were pure point group operations)
 out of a pool of 48 trial point group operations.


The dynamic configuration has the point symmetry O_h .
 
 
 KPOINTS: KPOINTS created by Atomic Simulation Env

Automatic generation of k-mesh.
Space group operators:
 irot       det(A)        alpha          n_x          n_y          n_z        tau_x        tau_y        tau_z
    1     1.000000     0.000001     1.000000     0.000000     0.000000     0.000000     0.000000     0.000000
    2    -1.000000     0.000001     1.000000     0.000000     0.000000     0.000000     0.000000     0.000000
    3     1.000000   120.000000    -0.816497    -0.471405    -0.333333     0.000000     0.000000     0.000000
    4    -1.000000   120.000000    -0.816497    -0.471405    -0.333333     0.000000     0.000000     0.000000
    5     1.000000   120.000000     0.816497     0.471405     0.333333     0.000000     0.000000     0.000000
    6    -1.000000   120.000000     0.816497     0.471405     0.333333     0.000000     0.000000     0.000000
    7     1.000000    90.000000    -0.707107    -0.408248     0.577350     0.000000     0.000000     0.000000
    8    -1.000000    90.000000    -0.707107    -0.408248     0.577350     0.000000     0.000000     0.000000
    9     1.000000   179.999999     1.000000     0.000000     0.000000     0.000000     0.000000     0.000000
   10    -1.000000   179.999999     1.000000     0.000000     0.000000     0.000000     0.000000     0.000000
   11     1.000000    90.000000     0.707107    -0.408248     0.577350     0.000000     0.000000     0.000000
   12    -1.000000    90.000000     0.707107    -0.408248     0.577350     0.000000     0.000000     0.000000
   13     1.000000   180.000000     0.707107     0.408248    -0.577350     0.000000     0.000000     0.000000
   14    -1.000000   180.000000     0.707107     0.408248    -0.577350     0.000000     0.000000     0.000000
   15     1.000000   120.000000     0.816497    -0.471405    -0.333333     0.000000     0.000000     0.000000
   16    -1.000000   120.000000     0.816497    -0.471405    -0.333333     0.000000     0.000000     0.000000
   17     1.000000   120.000000     0.000000    -0.942809     0.333333     0.000000     0.000000     0.000000
   18    -1.000000   120.000000     0.000000    -0.942809     0.333333     0.000000     0.000000     0.000000
   19     1.000000    90.000000     0.707107     0.408248    -0.577350     0.000000     0.000000     0.000000
   20    -1.000000    90.000000     0.707107     0.408248    -0.577350     0.000000     0.000000     0.000000
   21     1.000000    90.000000     0.000000    -0.816497    -0.577350     0.000000     0.000000     0.000000
   22    -1.000000    90.000000     0.000000    -0.816497    -0.577350     0.000000     0.000000     0.000000
   23     1.000000   180.000000     0.500000     0.866025     0.000000     0.000000     0.000000     0.000000
   24    -1.000000   180.000000     0.500000     0.866025     0.000000     0.000000     0.000000     0.000000
   25     1.000000   120.000000     0.000000     0.942809    -0.333333     0.000000     0.000000     0.000000
   26    -1.000000   120.000000     0.000000     0.942809    -0.333333     0.000000     0.000000     0.000000
   27     1.000000   120.000000     0.000000     0.000000    -1.000000     0.000000     0.000000     0.000000
   28    -1.000000   120.000000     0.000000     0.000000    -1.000000     0.000000     0.000000     0.000000
   29     1.000000   180.000000     0.000000    -0.816497    -0.577350     0.000000     0.000000     0.000000
   30    -1.000000   180.000000     0.000000    -0.816497    -0.577350     0.000000     0.000000     0.000000
   31     1.000000    90.000000    -0.707107     0.408248    -0.577350     0.000000     0.000000     0.000000
   32    -1.000000    90.000000    -0.707107     0.408248    -0.577350     0.000000     0.000000     0.000000
   33     1.000000   179.999999     0.500000     0.288675     0.816497     0.000000     0.000000     0.000000
   34    -1.000000   179.999999     0.500000     0.288675     0.816497     0.000000     0.000000     0.000000
   35     1.000000    90.000000     0.000000     0.816497     0.577350     0.000000     0.000000     0.000000
   36    -1.000000    90.000000     0.000000     0.816497     0.577350     0.000000     0.000000     0.000000
   37     1.000000   120.000000    -0.816497     0.471405     0.333333     0.000000     0.000000     0.000000
   38    -1.000000   120.000000    -0.816497     0.471405     0.333333     0.000000     0.000000     0.000000
   39     1.000000   179.999999    -0.707107     0.408248    -0.577350     0.000000     0.000000     0.000000
   40    -1.000000   179.999999    -0.707107     0.408248    -0.577350     0.000000     0.000000     0.000000
   41     1.000000   120.000000     0.000000     0.000000     1.000000     0.000000     0.000000     0.000000
   42    -1.000000   120.000000     0.000000     0.000000     1.000000     0.000000     0.000000     0.000000
   43     1.000000   180.000000     0.000000    -0.577350     0.816497     0.000000     0.000000     0.000000
   44    -1.000000   180.000000     0.000000    -0.577350     0.816497     0.000000     0.000000     0.000000
   45     1.000000   180.000000    -0.500000     0.866025     0.000000     0.000000     0.000000     0.000000
   46    -1.000000   180.000000    -0.500000     0.866025     0.000000     0.000000     0.000000     0.000000
   47     1.000000   179.999999    -0.500000     0.288675     0.816497     0.000000     0.000000     0.000000
   48    -1.000000   179.999999    -0.500000     0.288675     0.816497     0.000000     0.000000     0.000000
 
 Subroutine IBZKPT returns following result:
 ===========================================
 
 Found     60 irreducible k-points:
 
 Following reciprocal coordinates:
            Coordinates               Weight
  0.062500  0.062500  0.062500     96.000000
  0.187500  0.062500  0.062500    288.000000
  0.312500  0.062500  0.062500    288.000000
  0.437500  0.062500  0.062500    288.000000
 -0.437500  0.062500  0.062500    288.000000
 -0.312500  0.062500  0.062500    288.000000
 -0.187500  0.062500  0.062500    288.000000
 -0.062500  0.062500  0.062500    288.000000
  0.187500  0.187500  0.062500    288.000000
  0.312500  0.187500  0.062500    576.000000
  0.437500  0.187500  0.062500    576.000000
 -0.437500  0.187500  0.062500    576.000000
 -0.312500  0.187500  0.062500    576.000000
 -0.187500  0.187500  0.062500    576.000000
 -0.062500  0.187500  0.062500    576.000000
  0.312500  0.312500  0.062500    288.000000
  0.437500  0.312500  0.062500    576.000000
 -0.437500  0.312500  0.062500    576.000000
 -0.312500  0.312500  0.062500    576.000000
 -0.187500  0.312500  0.062500    576.000000
 -0.062500  0.312500  0.062500    576.000000
  0.437500  0.437500  0.062500    288.000000
 -0.437500  0.437500  0.062500    576.000000
 -0.312500  0.437500  0.062500    576.000000
 -0.187500  0.437500  0.062500    576.000000
 -0.062500  0.437500  0.062500    576.000000
 -0.437500 -0.437500  0.062500    288.000000
 -0.312500 -0.437500  0.062500    576.000000
 -0.187500 -0.437500  0.062500    576.000000
 -0.312500 -0.312500  0.062500    288.000000
 -0.187500 -0.312500  0.062500    576.000000
 -0.187500 -0.187500  0.062500    288.000000
  0.187500  0.187500  0.187500     96.000000
  0.312500  0.187500  0.187500    288.000000
  0.437500  0.187500  0.187500    288.000000
 -0.437500  0.187500  0.187500    288.000000
 -0.312500  0.187500  0.187500    288.000000
 -0.187500  0.187500  0.187500    288.000000
  0.312500  0.312500  0.187500    288.000000
  0.437500  0.312500  0.187500    576.000000
 -0.437500  0.312500  0.187500    576.000000
 -0.312500  0.312500  0.187500    576.000000
 -0.187500  0.312500  0.187500    576.000000
  0.437500  0.437500  0.187500    288.000000
 -0.437500  0.437500  0.187500    576.000000
 -0.312500  0.437500  0.187500    576.000000
 -0.187500  0.437500  0.187500    576.000000
 -0.437500 -0.437500  0.187500    288.000000
 -0.312500 -0.437500  0.187500    576.000000
 -0.312500 -0.312500  0.187500    288.000000
  0.312500  0.312500  0.312500     96.000000
  0.437500  0.312500  0.312500    288.000000
 -0.437500  0.312500  0.312500    288.000000
 -0.312500  0.312500  0.312500    288.000000
  0.437500  0.437500  0.312500    288.000000
 -0.437500  0.437500  0.312500    576.000000
 -0.312500  0.437500  0.312500    576.000000
 -0.437500 -0.437500  0.312500    288.000000
  0.437500  0.437500  0.437500     96.000000
 -0.437500  0.437500  0.437500    288.000000
 
 Following cartesian coordinates:
            Coordinates               Weight
  0.020388  0.011771  0.008323     96.000000
  0.061163 -0.011771 -0.008323    288.000000
  0.101938 -0.035312 -0.024970    288.000000
  0.142713 -0.058854 -0.041616    288.000000
 -0.142713  0.105937  0.074909    288.000000
 -0.101938  0.082395  0.058262    288.000000
 -0.061163  0.058854  0.041616    288.000000
 -0.020388  0.035312  0.024970    288.000000
  0.061163  0.035312 -0.024970    288.000000
  0.101938  0.011771 -0.041616    576.000000
  0.142713 -0.011771 -0.058262    576.000000
 -0.142713  0.153020  0.058262    576.000000
 -0.101938  0.129479  0.041616    576.000000
 -0.061163  0.105937  0.024970    576.000000
 -0.020388  0.082395  0.008323    576.000000
  0.101938  0.058854 -0.058262    288.000000
  0.142713  0.035312 -0.074909    576.000000
 -0.142713  0.200103  0.041616    576.000000
 -0.101938  0.176562  0.024970    576.000000
 -0.061163  0.153020  0.008323    576.000000
 -0.020388  0.129479 -0.008323    576.000000
  0.142713  0.082395 -0.091555    288.000000
 -0.142713  0.247186  0.024970    576.000000
 -0.101938  0.223645  0.008323    576.000000
 -0.061163  0.200103 -0.008323    576.000000
 -0.020388  0.176562 -0.024970    576.000000
 -0.142713 -0.082395  0.141494    288.000000
 -0.101938 -0.105937  0.124848    576.000000
 -0.061163 -0.129479  0.108202    576.000000
 -0.101938 -0.058854  0.108202    288.000000
 -0.061163 -0.082395  0.091555    576.000000
 -0.061163 -0.035312  0.074909    288.000000
  0.061163  0.035312  0.024970     96.000000
  0.101938  0.011771  0.008323    288.000000
  0.142713 -0.011771 -0.008323    288.000000
 -0.142713  0.153020  0.108202    288.000000
 -0.101938  0.129479  0.091555    288.000000
 -0.061163  0.105937  0.074909    288.000000
  0.101938  0.058854 -0.008323    288.000000
  0.142713  0.035312 -0.024970    576.000000
 -0.142713  0.200103  0.091555    576.000000
 -0.101938  0.176562  0.074909    576.000000
 -0.061163  0.153020  0.058262    576.000000
  0.142713  0.082395 -0.041616    288.000000
 -0.142713  0.247186  0.074909    576.000000
 -0.101938  0.223645  0.058262    576.000000
 -0.061163  0.200103  0.041616    576.000000
 -0.142713 -0.082395  0.191434    288.000000
 -0.101938 -0.105937  0.174787    576.000000
 -0.101938 -0.058854  0.158141    288.000000
  0.101938  0.058854  0.041616     96.000000
  0.142713  0.035312  0.024970    288.000000
 -0.142713  0.200103  0.141494    288.000000
 -0.101938  0.176562  0.124848    288.000000
  0.142713  0.082395  0.008323    288.000000
 -0.142713  0.247186  0.124848    576.000000
 -0.101938  0.223645  0.108202    576.000000
 -0.142713 -0.082395  0.241373    288.000000
  0.142713  0.082395  0.058262     96.000000
 -0.142713  0.247186  0.174787    288.000000
 


--------------------------------------------------------------------------------------------------------




 Dimension of arrays:
   k-points           NKPTS =     60   k-points in BZ     NKDIM =     60   number of bands    NBANDS=      9
   number of dos      NEDOS =    301   number of ions     NIONS =      1
   non local maximal  LDIM  =      6   non local SUM 2l+1 LMDIM =     18
   total plane-waves  NPLWV =   2744
   max r-space proj   IRMAX =      1   max aug-charges    IRDMAX=   6822
   dimension x,y,z NGX =    14 NGY =   14 NGZ =   14
   dimension x,y,z NGXF=    28 NGYF=   28 NGZF=   28
   support grid    NGXF=    28 NGYF=   28 NGZF=   28
   ions per type =               1
 NGX,Y,Z   is equivalent  to a cutoff of   7.59,  7.59,  7.59 a.u.
 NGXF,Y,Z  is equivalent  to a cutoff of  15.18, 15.18, 15.18 a.u.


 I would recommend the setting:
   dimension x,y,z NGX =    14 NGY =   14 NGZ =   14
 SYSTEM =  unknown system                          
 POSCAR =  Ag                                      

 Startparameter for this run:
   NWRITE =      2    write-flag & timer
   PREC   = normal    normal or accurate (medium, high low for compatibility)
   ISTART =      0    job   : 0-new  1-cont  2-samecut
   ICHARG =      2    charge: 1-file 2-atom 10-const
   ISPIN  =      1    spin polarized calculation?
   LNONCOLLINEAR =      F non collinear calculations
   LSORBIT =      F    spin-orbit coupling
   INIWAV =      1    electr: 0-lowe 1-rand  2-diag
   LASPH  =      F    aspherical Exc in radial PAW
   METAGGA=      F    non-selfconsistent MetaGGA calc.

 Electronic Relaxation 1
   ENCUT  =  350.0 eV  25.72 Ry    5.07 a.u.   4.68  4.68  4.68*2*pi/ulx,y,z
   ENINI  =  350.0     initial cutoff
   ENAUG  =  412.5 eV  augmentation charge cutoff
   NELM   =     60;   NELMIN=  2; NELMDL= -5     # of ELM steps 
   EDIFF  = 0.1E-03   stopping-criterion for ELM
   LREAL  =      F    real-space projection
   NLSPLINE    = F    spline interpolate recip. space projectors
   LCOMPAT=      F    compatible to vasp.4.4
   GGA_COMPAT  = T    GGA compatible to vasp.4.4-vasp.4.6
   LMAXPAW     = -100 max onsite density
   LMAXMIX     =    2 max onsite mixed and CHGCAR
   VOSKOWN=      0    Vosko Wilk Nusair interpolation
   ROPT   =    0.00000
 Ionic relaxation
   EDIFFG = 0.1E-02   stopping-criterion for IOM
   NSW    =     30    number of steps for IOM
   NBLOCK =      1;   KBLOCK =     30    inner block; outer block 
   IBRION =      2    ionic relax: 0-MD 1-quasi-New 2-CG
   NFREE  =      1    steps in history (QN), initial steepest desc. (CG)
   ISIF   =      2    stress and relaxation
   IWAVPR =     11    prediction:  0-non 1-charg 2-wave 3-comb
   ISYM   =      2    0-nonsym 1-usesym 2-fastsym
   LCORR  =      T    Harris-Foulkes like correction to forces

   POTIM  = 0.5000    time-step for ionic-motion
   TEIN   =    0.0    initial temperature
   TEBEG  =    0.0;   TEEND  =   0.0 temperature during run
   SMASS  =  -3.00    Nose mass-parameter (am)
   estimated Nose-frequenzy (Omega)   =  0.10E-29 period in steps =****** mass=  -0.215E-27a.u.
   SCALEE = 1.0000    scale energy and forces
   NPACO  =    256;   APACO  = 16.0  distance and # of slots for P.C.
   PSTRESS=    0.0 pullay stress

  Mass of Ions in am
   POMASS = 107.87
  Ionic Valenz
   ZVAL   =  11.00
  Atomic Wigner-Seitz radii
   RWIGS  =  -1.00
  virtual crystal weights 
   VCA    =   1.00
   NELECT =      11.0000    total number of electrons
   NUPDOWN=      -1.0000    fix difference up-down

 DOS related values:
   EMIN   =  10.00;   EMAX   =-10.00  energy-range for DOS
   EFERMI =   0.00
   ISMEAR =     1;   SIGMA  =   0.20  broadening in eV -4-tet -1-fermi 0-gaus

 Electronic relaxation 2 (details)
   IALGO  =     38    algorithm
   LDIAG  =      T    sub-space diagonalisation (order eigenvalues)
   LSUBROT=      F    optimize rotation matrix (better conditioning)
   TURBO    =      0    0=normal 1=particle mesh
   IRESTART =      0    0=no restart 2=restart with 2 vectors
   NREBOOT  =      0    no. of reboots
   NMIN     =      0    reboot dimension
   EREF     =   0.00    reference energy to select bands
   IMIX   =      4    mixing-type and parameters
     AMIX     =   0.40;   BMIX     =  1.00
     AMIX_MAG =   1.60;   BMIX_MAG =  1.00
     AMIN     =   0.10
     WC   =   100.;   INIMIX=   1;  MIXPRE=   1;  MAXMIX= -45

 Intra band minimization:
   WEIMIN = 0.0010     energy-eigenvalue tresh-hold
   EBREAK =  0.28E-05  absolut break condition
   DEPER  =   0.30     relativ break condition  

   TIME   =   0.40     timestep for ELM

  volume/ion in A,a.u.               =      20.37       137.48
  Fermi-wavevector in a.u.,A,eV,Ry     =   1.333101  2.519197 24.179724  1.777160
  Thomas-Fermi vector in A             =   2.461986
 
 Write flags
   LWAVE  =      T    write WAVECAR
   LCHARG =      T    write CHGCAR
   LVTOT  =      F    write LOCPOT, total local potential
   LVHAR  =      F    write LOCPOT, Hartree potential only
   LELF   =      F    write electronic localiz. function (ELF)
   LORBIT =      0    0 simple, 1 ext, 2 COOP (PROOUT)


 Dipole corrections
   LMONO  =      F    monopole corrections only (constant potential shift)
   LDIPOL =      F    correct potential (dipole corrections)
   IDIPOL =      0    1-x, 2-y, 3-z, 4-all directions 
   EPSILON=  1.0000000 bulk dielectric constant

 Exchange correlation treatment:
   GGA     =    --    GGA type
   LEXCH   =     8    internal setting for exchange type
   VOSKOWN=      0    Vosko Wilk Nusair interpolation
   LHFCALC =     F    Hartree Fock is set to
   LHFONE  =     F    Hartree Fock one center treatment
   AEXX    =    0.0000 exact exchange contribution

 Linear response parameters
   LEPSILON=     F    determine dielectric tensor
   LRPA    =     F    only Hartree local field effects (RPA)
   LNABLA  =     F    use nabla operator in PAW spheres
   LVEL    =     F    velocity operator in full k-point grid
   LINTERFAST=   F  fast interpolation
   KINTER  =     0    interpolate to denser k-point grid
   CSHIFT  =0.1000    complex shift for real part using Kramers Kronig
   OMEGAMAX=  -1.0    maximum frequency
   DEG_THRESHOLD= 0.2000000E-02 threshold for treating states as degnerate
   RTIME   =    0.100 relaxation time in fs

 Orbital magnetization related:
   ORBITALMAG=     F  switch on orbital magnetization
   LCHIMAG   =     F  perturbation theory with respect to B field
   DQ        =  0.001000  dq finite difference perturbation B field



--------------------------------------------------------------------------------------------------------


 conjugate gradient relaxation of ions
 charge density and potential will be updated during run
 non-spin polarized calculation
 Variant of blocked Davidson
 Davidson routine will perform the subspace rotation
 perform sub-space diagonalisation
    after iterative eigenvector-optimisation
 modified Broyden-mixing scheme, WC =      100.0
 initial mixing is a Kerker type mixing with AMIX =  0.4000 and BMIX =      1.0000
 Hartree-type preconditioning will be used
 using additional bands            3
 reciprocal scheme for non local part
 use partial core corrections
 calculate Harris-corrections to forces 
   (improved forces if not selfconsistent)
 use gradient corrections 
 use of overlap-Matrix (Vanderbilt PP)
 Methfessel and Paxton  Order N= 1 SIGMA  =   0.20


--------------------------------------------------------------------------------------------------------


  energy-cutoff  :      350.00
  volume of cell :       20.37
      direct lattice vectors                 reciprocal lattice vectors
     3.065590739  0.000000000  0.000000000     0.326201403 -0.188332468 -0.133171165
     1.532795370  2.654879458  0.000000000     0.000000000  0.376664936 -0.133171165
     1.532795370  0.884959819  2.503044357     0.000000000  0.000000000  0.399513495

  length of vectors
     3.065590739  3.065590739  3.065590739     0.399513495  0.399513495  0.399513495


 
 k-points in units of 2pi/SCALE and weight: KPOINTS created by Atomic Simulation Env
   0.02038759  0.01177078  0.00832320       0.004
   0.06116276 -0.01177078 -0.00832320       0.012
   0.10193794 -0.03531234 -0.02496959       0.012
   0.14271311 -0.05885390 -0.04161599       0.012
  -0.14271311  0.10593701  0.07490878       0.012
  -0.10193794  0.08239545  0.05826238       0.012
  -0.06116276  0.05885390  0.04161599       0.012
  -0.02038759  0.03531234  0.02496959       0.012
   0.06116276  0.03531234 -0.02496959       0.012
   0.10193794  0.01177078 -0.04161599       0.023
   0.14271311 -0.01177078 -0.05826238       0.023
  -0.14271311  0.15302013  0.05826238       0.023
  -0.10193794  0.12947857  0.04161599       0.023
  -0.06116276  0.10593701  0.02496959       0.023
  -0.02038759  0.08239545  0.00832320       0.023
   0.10193794  0.05885390 -0.05826238       0.012
   0.14271311  0.03531234 -0.07490878       0.023
  -0.14271311  0.20010325  0.04161599       0.023
  -0.10193794  0.17656169  0.02496959       0.023
  -0.06116276  0.15302013  0.00832320       0.023
  -0.02038759  0.12947857 -0.00832320       0.023
   0.14271311  0.08239545 -0.09155518       0.012
  -0.14271311  0.24718636  0.02496959       0.023
  -0.10193794  0.22364481  0.00832320       0.023
  -0.06116276  0.20010325 -0.00832320       0.023
  -0.02038759  0.17656169 -0.02496959       0.023
  -0.14271311 -0.08239545  0.14149436       0.012
  -0.10193794 -0.10593701  0.12484797       0.023
  -0.06116276 -0.12947857  0.10820157       0.023
  -0.10193794 -0.05885390  0.10820157       0.012
  -0.06116276 -0.08239545  0.09155518       0.023
  -0.06116276 -0.03531234  0.07490878       0.012
   0.06116276  0.03531234  0.02496959       0.004
   0.10193794  0.01177078  0.00832320       0.012
   0.14271311 -0.01177078 -0.00832320       0.012
  -0.14271311  0.15302013  0.10820157       0.012
  -0.10193794  0.12947857  0.09155518       0.012
  -0.06116276  0.10593701  0.07490878       0.012
   0.10193794  0.05885390 -0.00832320       0.012
   0.14271311  0.03531234 -0.02496959       0.023
  -0.14271311  0.20010325  0.09155518       0.023
  -0.10193794  0.17656169  0.07490878       0.023
  -0.06116276  0.15302013  0.05826238       0.023
   0.14271311  0.08239545 -0.04161599       0.012
  -0.14271311  0.24718636  0.07490878       0.023
  -0.10193794  0.22364481  0.05826238       0.023
  -0.06116276  0.20010325  0.04161599       0.023
  -0.14271311 -0.08239545  0.19143355       0.012
  -0.10193794 -0.10593701  0.17478715       0.023
  -0.10193794 -0.05885390  0.15814076       0.012
   0.10193794  0.05885390  0.04161599       0.004
   0.14271311  0.03531234  0.02496959       0.012
  -0.14271311  0.20010325  0.14149436       0.012
  -0.10193794  0.17656169  0.12484797       0.012
   0.14271311  0.08239545  0.00832320       0.012
  -0.14271311  0.24718636  0.12484797       0.023
  -0.10193794  0.22364481  0.10820157       0.023
  -0.14271311 -0.08239545  0.24137274       0.012
   0.14271311  0.08239545  0.05826238       0.004
  -0.14271311  0.24718636  0.17478715       0.012
 
 k-points in reciprocal lattice and weights: KPOINTS created by Atomic Simulation Env
   0.06250000  0.06250000  0.06250000       0.004
   0.18750000  0.06250000  0.06250000       0.012
   0.31250000  0.06250000  0.06250000       0.012
   0.43750000  0.06250000  0.06250000       0.012
  -0.43750000  0.06250000  0.06250000       0.012
  -0.31250000  0.06250000  0.06250000       0.012
  -0.18750000  0.06250000  0.06250000       0.012
  -0.06250000  0.06250000  0.06250000       0.012
   0.18750000  0.18750000  0.06250000       0.012
   0.31250000  0.18750000  0.06250000       0.023
   0.43750000  0.18750000  0.06250000       0.023
  -0.43750000  0.18750000  0.06250000       0.023
  -0.31250000  0.18750000  0.06250000       0.023
  -0.18750000  0.18750000  0.06250000       0.023
  -0.06250000  0.18750000  0.06250000       0.023
   0.31250000  0.31250000  0.06250000       0.012
   0.43750000  0.31250000  0.06250000       0.023
  -0.43750000  0.31250000  0.06250000       0.023
  -0.31250000  0.31250000  0.06250000       0.023
  -0.18750000  0.31250000  0.06250000       0.023
  -0.06250000  0.31250000  0.06250000       0.023
   0.43750000  0.43750000  0.06250000       0.012
  -0.43750000  0.43750000  0.06250000       0.023
  -0.31250000  0.43750000  0.06250000       0.023
  -0.18750000  0.43750000  0.06250000       0.023
  -0.06250000  0.43750000  0.06250000       0.023
  -0.43750000 -0.43750000  0.06250000       0.012
  -0.31250000 -0.43750000  0.06250000       0.023
  -0.18750000 -0.43750000  0.06250000       0.023
  -0.31250000 -0.31250000  0.06250000       0.012
  -0.18750000 -0.31250000  0.06250000       0.023
  -0.18750000 -0.18750000  0.06250000       0.012
   0.18750000  0.18750000  0.18750000       0.004
   0.31250000  0.18750000  0.18750000       0.012
   0.43750000  0.18750000  0.18750000       0.012
  -0.43750000  0.18750000  0.18750000       0.012
  -0.31250000  0.18750000  0.18750000       0.012
  -0.18750000  0.18750000  0.18750000       0.012
   0.31250000  0.31250000  0.18750000       0.012
   0.43750000  0.31250000  0.18750000       0.023
  -0.43750000  0.31250000  0.18750000       0.023
  -0.31250000  0.31250000  0.18750000       0.023
  -0.18750000  0.31250000  0.18750000       0.023
   0.43750000  0.43750000  0.18750000       0.012
  -0.43750000  0.43750000  0.18750000       0.023
  -0.31250000  0.43750000  0.18750000       0.023
  -0.18750000  0.43750000  0.18750000       0.023
  -0.43750000 -0.43750000  0.18750000       0.012
  -0.31250000 -0.43750000  0.18750000       0.023
  -0.31250000 -0.31250000  0.18750000       0.012
   0.31250000  0.31250000  0.31250000       0.004
   0.43750000  0.31250000  0.31250000       0.012
  -0.43750000  0.31250000  0.31250000       0.012
  -0.31250000  0.31250000  0.31250000       0.012
   0.43750000  0.43750000  0.31250000       0.012
  -0.43750000  0.43750000  0.31250000       0.023
  -0.31250000  0.43750000  0.31250000       0.023
  -0.43750000 -0.43750000  0.31250000       0.012
   0.43750000  0.43750000  0.43750000       0.004
  -0.43750000  0.43750000  0.43750000       0.012
 
 position of ions in fractional coordinates (direct lattice) 
   0.00000000  0.00000000  0.00000000
 
 position of ions in cartesian coordinates  (Angst):
   0.00000000  0.00000000  0.00000000
 


--------------------------------------------------------------------------------------------------------


 k-point  1 :   0.0625 0.0625 0.0625  plane waves:     313
 k-point  2 :   0.1875 0.0625 0.0625  plane waves:     311
 k-point  3 :   0.3125 0.0625 0.0625  plane waves:     305
 k-point  4 :   0.4375 0.0625 0.0625  plane waves:     302
 k-point  5 :  -0.4375 0.0625 0.0625  plane waves:     301
 k-point  6 :  -0.3125 0.0625 0.0625  plane waves:     302
 k-point  7 :  -0.1875 0.0625 0.0625  plane waves:     304
 k-point  8 :  -0.0625 0.0625 0.0625  plane waves:     305
 k-point  9 :   0.1875 0.1875 0.0625  plane waves:     303
 k-point 10 :   0.3125 0.1875 0.0625  plane waves:     303
 k-point 11 :   0.4375 0.1875 0.0625  plane waves:     306
 k-point 12 :  -0.4375 0.1875 0.0625  plane waves:     303
 k-point 13 :  -0.3125 0.1875 0.0625  plane waves:     303
 k-point 14 :  -0.1875 0.1875 0.0625  plane waves:     304
 k-point 15 :  -0.0625 0.1875 0.0625  plane waves:     308
 k-point 16 :   0.3125 0.3125 0.0625  plane waves:     308
 k-point 17 :   0.4375 0.3125 0.0625  plane waves:     307
 k-point 18 :  -0.4375 0.3125 0.0625  plane waves:     300
 k-point 19 :  -0.3125 0.3125 0.0625  plane waves:     298
 k-point 20 :  -0.1875 0.3125 0.0625  plane waves:     305
 k-point 21 :  -0.0625 0.3125 0.0625  plane waves:     301
 k-point 22 :   0.4375 0.4375 0.0625  plane waves:     310
 k-point 23 :  -0.4375 0.4375 0.0625  plane waves:     305
 k-point 24 :  -0.3125 0.4375 0.0625  plane waves:     297
 k-point 25 :  -0.1875 0.4375 0.0625  plane waves:     302
 k-point 26 :  -0.0625 0.4375 0.0625  plane waves:     304
 k-point 27 :  -0.4375-0.4375 0.0625  plane waves:     304
 k-point 28 :  -0.3125-0.4375 0.0625  plane waves:     305
 k-point 29 :  -0.1875-0.4375 0.0625  plane waves:     304
 k-point 30 :  -0.3125-0.3125 0.0625  plane waves:     309
 k-point 31 :  -0.1875-0.3125 0.0625  plane waves:     306
 k-point 32 :  -0.1875-0.1875 0.0625  plane waves:     304
 k-point 33 :   0.1875 0.1875 0.1875  plane waves:     311
 k-point 34 :   0.3125 0.1875 0.1875  plane waves:     305
 k-point 35 :   0.4375 0.1875 0.1875  plane waves:     305
 k-point 36 :  -0.4375 0.1875 0.1875  plane waves:     301
 k-point 37 :  -0.3125 0.1875 0.1875  plane waves:     304
 k-point 38 :  -0.1875 0.1875 0.1875  plane waves:     307
 k-point 39 :   0.3125 0.3125 0.1875  plane waves:     302
 k-point 40 :   0.4375 0.3125 0.1875  plane waves:     307
 k-point 41 :  -0.4375 0.3125 0.1875  plane waves:     300
 k-point 42 :  -0.3125 0.3125 0.1875  plane waves:     299
 k-point 43 :  -0.1875 0.3125 0.1875  plane waves:     302
 k-point 44 :   0.4375 0.4375 0.1875  plane waves:     307
 k-point 45 :  -0.4375 0.4375 0.1875  plane waves:     302
 k-point 46 :  -0.3125 0.4375 0.1875  plane waves:     298
 k-point 47 :  -0.1875 0.4375 0.1875  plane waves:     301
 k-point 48 :  -0.4375-0.4375 0.1875  plane waves:     301
 k-point 49 :  -0.3125-0.4375 0.1875  plane waves:     301
 k-point 50 :  -0.3125-0.3125 0.1875  plane waves:     303
 k-point 51 :   0.3125 0.3125 0.3125  plane waves:     302
 k-point 52 :   0.4375 0.3125 0.3125  plane waves:     302
 k-point 53 :  -0.4375 0.3125 0.3125  plane waves:     299
 k-point 54 :  -0.3125 0.3125 0.3125  plane waves:     296
 k-point 55 :   0.4375 0.4375 0.3125  plane waves:     304
 k-point 56 :  -0.4375 0.4375 0.3125  plane waves:     300
 k-point 57 :  -0.3125 0.4375 0.3125  plane waves:     301
 k-point 58 :  -0.4375-0.4375 0.3125  plane waves:     302
 k-point 59 :   0.4375 0.4375 0.4375  plane waves:     302
 k-point 60 :  -0.4375 0.4375 0.4375  plane waves:     300

 maximum number of plane-waves:       313
 maximum index in each direction: 
   IXMAX=    5   IYMAX=    5   IZMAX=    4
   IXMIN=   -5   IYMIN=   -5   IZMIN=   -5

 WARNING: aliasing errors must be expected set NGX to  22 to avoid them
 WARNING: aliasing errors must be expected set NGY to  22 to avoid them
 WARNING: aliasing errors must be expected set NGZ to  20 to avoid them
 aliasing errors are usually negligible using standard VASP settings
 and one can safely disregard these warnings

 total amount of memory used by VASP on root node    36799. kBytes
========================================================================

   base      :      30000. kBytes
   nonl-proj :       2709. kBytes
   grid      :       1216. kBytes
   one-center:         15. kBytes
   wavefun   :       2859. kBytes
 
     INWAV:  cpu time    0.00: real time    0.00
 Broyden mixing: mesh for mixing (old mesh)
   NGX =  9   NGY =  9   NGZ =  9
  (NGX  = 28   NGY  = 28   NGZ  = 28)
  gives a total of    729 points

 initial charge density was supplied:
 charge density of overlapping atoms calculated
 number of electron      11.0000000 magnetization 
 keeping initial charge density in first step


--------------------------------------------------------------------------------------------------------


 Maximum index for augmentation-charges         6459 (set IRDMAX)


--------------------------------------------------------------------------------------------------------


 First call to EWALD:  gamma=   0.649
 Maximum number of real-space cells 3x 3x 3
 Maximum number of reciprocal cells 3x 3x 3

    FEWALD:  cpu time    0.00: real time    0.00


----------------------------------------- Iteration    1(   1)  ---------------------------------------


    POTLOK:  cpu time    0.03: real time    0.03
    SETDIJ:  cpu time    0.01: real time    0.01
     EDDAV:  cpu time    0.91: real time    0.91
       DOS:  cpu time    0.00: real time    0.01
    --------------------------------------------
      LOOP:  cpu time    0.95: real time    0.95

 eigenvalue-minimisations  :  1240
 total energy-change (2. order) : 0.2886366E+02  (-0.4459803E+03)
 number of electron      11.0000000 magnetization 
 augmentation part       11.0000000 magnetization 

 Free energy of the ion-electron system (eV)
  ---------------------------------------------------
  alpha Z        PSCENC =        41.75290067
  Ewald energy   TEWEN  =      -921.31586517
  -Hartree energ DENC   =      -230.42095430
  -exchange      EXHF   =         0.00000000
  -V(xc)+E(xc)   XCENC  =       -10.85277003
  PAW double counting   =      1003.46214933     -957.34927423
  entropy T*S    EENTRO =         0.00018384
  eigenvalues    EBANDS =        66.34701666
  atomic energy  EATOM  =      1037.24027811
  ---------------------------------------------------
  free energy    TOTEN  =        28.86366488 eV

  energy without entropy =       28.86348104  energy(sigma->0) =       28.86360360


--------------------------------------------------------------------------------------------------------




----------------------------------------- Iteration    1(   2)  ---------------------------------------


     EDDAV:  cpu time    0.85: real time    0.85
       DOS:  cpu time    0.00: real time    0.00
    --------------------------------------------
      LOOP:  cpu time    0.86: real time    0.86

 eigenvalue-minimisations  :  1108
 total energy-change (2. order) :-0.3148149E+02  (-0.3009219E+02)
 number of electron      11.0000000 magnetization 
 augmentation part       11.0000000 magnetization 

 Free energy of the ion-electron system (eV)
  ---------------------------------------------------
  alpha Z        PSCENC =        41.75290067
  Ewald energy   TEWEN  =      -921.31586517
  -Hartree energ DENC   =      -230.42095430
  -exchange      EXHF   =         0.00000000
  -V(xc)+E(xc)   XCENC  =       -10.85277003
  PAW double counting   =      1003.46214933     -957.34927423
  entropy T*S    EENTRO =        -0.00077852
  eigenvalues    EBANDS =        34.86648693
  atomic energy  EATOM  =      1037.24027811
  ---------------------------------------------------
  free energy    TOTEN  =        -2.61782722 eV

  energy without entropy =       -2.61704870  energy(sigma->0) =       -2.61756771


--------------------------------------------------------------------------------------------------------




----------------------------------------- Iteration    1(   3)  ---------------------------------------


     EDDAV:  cpu time    0.93: real time    0.93
       DOS:  cpu time    0.00: real time    0.01
    --------------------------------------------
      LOOP:  cpu time    0.94: real time    0.95

 eigenvalue-minimisations  :  1278
 total energy-change (2. order) :-0.2186984E+00  (-0.2186477E+00)
 number of electron      11.0000000 magnetization 
 augmentation part       11.0000000 magnetization 

 Free energy of the ion-electron system (eV)
  ---------------------------------------------------
  alpha Z        PSCENC =        41.75290067
  Ewald energy   TEWEN  =      -921.31586517
  -Hartree energ DENC   =      -230.42095430
  -exchange      EXHF   =         0.00000000
  -V(xc)+E(xc)   XCENC  =       -10.85277003
  PAW double counting   =      1003.46214933     -957.34927423
  entropy T*S    EENTRO =        -0.00080836
  eigenvalues    EBANDS =        34.64781836
  atomic energy  EATOM  =      1037.24027811
  ---------------------------------------------------
  free energy    TOTEN  =        -2.83652562 eV

  energy without entropy =       -2.83571726  energy(sigma->0) =       -2.83625617


--------------------------------------------------------------------------------------------------------




----------------------------------------- Iteration    1(   4)  ---------------------------------------


     EDDAV:  cpu time    0.81: real time    0.81
       DOS:  cpu time    0.00: real time    0.00
    --------------------------------------------
      LOOP:  cpu time    0.82: real time    0.83

 eigenvalue-minimisations  :  1227
 total energy-change (2. order) :-0.4365243E-03  (-0.4365175E-03)
 number of electron      11.0000000 magnetization 
 augmentation part       11.0000000 magnetization 

 Free energy of the ion-electron system (eV)
  ---------------------------------------------------
  alpha Z        PSCENC =        41.75290067
  Ewald energy   TEWEN  =      -921.31586517
  -Hartree energ DENC   =      -230.42095430
  -exchange      EXHF   =         0.00000000
  -V(xc)+E(xc)   XCENC  =       -10.85277003
  PAW double counting   =      1003.46214933     -957.34927423
  entropy T*S    EENTRO =        -0.00080888
  eigenvalues    EBANDS =        34.64738236
  atomic energy  EATOM  =      1037.24027811
  ---------------------------------------------------
  free energy    TOTEN  =        -2.83696214 eV

  energy without entropy =       -2.83615326  energy(sigma->0) =       -2.83669251


--------------------------------------------------------------------------------------------------------




----------------------------------------- Iteration    1(   5)  ---------------------------------------


     EDDAV:  cpu time    0.69: real time    0.69
       DOS:  cpu time    0.00: real time    0.00
    CHARGE:  cpu time    0.06: real time    0.06
    MIXING:  cpu time    0.00: real time    0.00
    --------------------------------------------
      LOOP:  cpu time    0.76: real time    0.77

 eigenvalue-minimisations  :  1022
 total energy-change (2. order) :-0.3238301E-05  (-0.3237883E-05)
 number of electron      10.9999971 magnetization 
 augmentation part        5.1169939 magnetization 

 Broyden mixing:
  rms(total) = 0.33513E+00    rms(broyden)= 0.33509E+00
  rms(prec ) = 0.10467E+01
  weight for this iteration     100.00

 Free energy of the ion-electron system (eV)
  ---------------------------------------------------
  alpha Z        PSCENC =        41.75290067
  Ewald energy   TEWEN  =      -921.31586517
  -Hartree energ DENC   =      -230.42095430
  -exchange      EXHF   =         0.00000000
  -V(xc)+E(xc)   XCENC  =       -10.85277003
  PAW double counting   =      1003.46214933     -957.34927423
  entropy T*S    EENTRO =        -0.00080889
  eigenvalues    EBANDS =        34.64737913
  atomic energy  EATOM  =      1037.24027811
  ---------------------------------------------------
  free energy    TOTEN  =        -2.83696538 eV

  energy without entropy =       -2.83615649  energy(sigma->0) =       -2.83669575


--------------------------------------------------------------------------------------------------------




----------------------------------------- Iteration    1(   6)  ---------------------------------------


    POTLOK:  cpu time    0.02: real time    0.02
    SETDIJ:  cpu time    0.01: real time    0.01
     EDDAV:  cpu time    0.70: real time    0.70
       DOS:  cpu time    0.00: real time    0.01
    CHARGE:  cpu time    0.06: real time    0.06
    MIXING:  cpu time    0.00: real time    0.00
    --------------------------------------------
      LOOP:  cpu time    0.80: real time    0.81

 eigenvalue-minimisations  :  1113
 total energy-change (2. order) : 0.1873147E+00  (-0.1018918E+00)
 number of electron      10.9999970 magnetization 
 augmentation part        5.2748827 magnetization 

 Broyden mixing:
  rms(total) = 0.24031E+00    rms(broyden)= 0.24030E+00
  rms(prec ) = 0.27544E+00
  weight for this iteration     100.00

 eigenvalues of (default mixing * dielectric matrix)
  average eigenvalue GAMMA=   0.8512
  0.8512

 Free energy of the ion-electron system (eV)
  ---------------------------------------------------
  alpha Z        PSCENC =        41.75290067
  Ewald energy   TEWEN  =      -921.31586517
  -Hartree energ DENC   =      -221.33649168
  -exchange      EXHF   =         0.00000000
  -V(xc)+E(xc)   XCENC  =       -11.18533838
  PAW double counting   =      1023.15860345     -977.69673107
  entropy T*S    EENTRO =         0.00020131
  eigenvalues    EBANDS =        26.73279212
  atomic energy  EATOM  =      1037.24027811
  ---------------------------------------------------
  free energy    TOTEN  =        -2.64965063 eV

  energy without entropy =       -2.64985195  energy(sigma->0) =       -2.64971774


--------------------------------------------------------------------------------------------------------




----------------------------------------- Iteration    1(   7)  ---------------------------------------


    POTLOK:  cpu time    0.03: real time    0.03
    SETDIJ:  cpu time    0.01: real time    0.01
     EDDAV:  cpu time    0.83: real time    0.84
       DOS:  cpu time    0.00: real time    0.01
    CHARGE:  cpu time    0.07: real time    0.07
    MIXING:  cpu time    0.00: real time    0.00
    --------------------------------------------
      LOOP:  cpu time    0.94: real time    1.02

 eigenvalue-minimisations  :  1150
 total energy-change (2. order) : 0.3087570E-02  (-0.2562073E-03)
 number of electron      10.9999970 magnetization 
 augmentation part        5.2800815 magnetization 

 Broyden mixing:
  rms(total) = 0.14024E+00    rms(broyden)= 0.14024E+00
  rms(prec ) = 0.15753E+00
  weight for this iteration     100.00

 eigenvalues of (default mixing * dielectric matrix)
  average eigenvalue GAMMA=   1.7801
  1.0249  2.5353

 Free energy of the ion-electron system (eV)
  ---------------------------------------------------
  alpha Z        PSCENC =        41.75290067
  Ewald energy   TEWEN  =      -921.31586517
  -Hartree energ DENC   =      -220.34053571
  -exchange      EXHF   =         0.00000000
  -V(xc)+E(xc)   XCENC  =       -11.22630819
  PAW double counting   =      1040.43120432     -995.44267885
  entropy T*S    EENTRO =         0.00023379
  eigenvalues    EBANDS =        26.25420796
  atomic energy  EATOM  =      1037.24027811
  ---------------------------------------------------
  free energy    TOTEN  =        -2.64656307 eV

  energy without entropy =       -2.64679685  energy(sigma->0) =       -2.64664099


--------------------------------------------------------------------------------------------------------




----------------------------------------- Iteration    1(   8)  ---------------------------------------


    POTLOK:  cpu time    0.03: real time    0.03
    SETDIJ:  cpu time    0.01: real time    0.01
     EDDAV:  cpu time    0.90: real time    0.90
       DOS:  cpu time    0.00: real time    0.00
    CHARGE:  cpu time    0.06: real time    0.06
    MIXING:  cpu time    0.00: real time    0.00
    --------------------------------------------
      LOOP:  cpu time    1.01: real time    1.06

 eigenvalue-minimisations  :  1105
 total energy-change (2. order) : 0.1457981E-02  (-0.7062482E-04)
 number of electron      10.9999970 magnetization 
 augmentation part        5.2822263 magnetization 

 Broyden mixing:
  rms(total) = 0.35158E-02    rms(broyden)= 0.35148E-02
  rms(prec ) = 0.56800E-02
  weight for this iteration     100.00

 eigenvalues of (default mixing * dielectric matrix)
  average eigenvalue GAMMA=   1.5556
  2.4992  1.0078  1.1597

 Free energy of the ion-electron system (eV)
  ---------------------------------------------------
  alpha Z        PSCENC =        41.75290067
  Ewald energy   TEWEN  =      -921.31586517
  -Hartree energ DENC   =      -219.26431866
  -exchange      EXHF   =         0.00000000
  -V(xc)+E(xc)   XCENC  =       -11.27156097
  PAW double counting   =      1063.95575060    -1019.59669758
  entropy T*S    EENTRO =         0.00024772
  eigenvalues    EBANDS =        25.85416019
  atomic energy  EATOM  =      1037.24027811
  ---------------------------------------------------
  free energy    TOTEN  =        -2.64510508 eV

  energy without entropy =       -2.64535281  energy(sigma->0) =       -2.64518766


--------------------------------------------------------------------------------------------------------




----------------------------------------- Iteration    1(   9)  ---------------------------------------


    POTLOK:  cpu time    0.03: real time    0.03
    SETDIJ:  cpu time    0.01: real time    0.01
     EDDAV:  cpu time    0.62: real time    0.63
       DOS:  cpu time    0.00: real time    0.01
    --------------------------------------------
      LOOP:  cpu time    0.67: real time    0.71

 eigenvalue-minimisations  :   583
 total energy-change (2. order) :-0.1689251E-04  (-0.1094066E-05)
 number of electron      10.9999970 magnetization 
 augmentation part        5.2822263 magnetization 

 Free energy of the ion-electron system (eV)
  ---------------------------------------------------
  alpha Z        PSCENC =        41.75290067
  Ewald energy   TEWEN  =      -921.31586517
  -Hartree energ DENC   =      -219.28684624
  -exchange      EXHF   =         0.00000000
  -V(xc)+E(xc)   XCENC  =       -11.27109156
  PAW double counting   =      1063.91894001    -1019.53353035
  entropy T*S    EENTRO =         0.00024674
  eigenvalues    EBANDS =        25.84984581
  atomic energy  EATOM  =      1037.24027811
  ---------------------------------------------------
  free energy    TOTEN  =        -2.64512198 eV

  energy without entropy =       -2.64536871  energy(sigma->0) =       -2.64520422


--------------------------------------------------------------------------------------------------------




 average (electrostatic) potential at core
  the test charge radii are     1.1249
  (the norm of the test charge is              1.0000)
       1 -72.5919
 
 
 
 E-fermi :   6.2131     XC(G=0): -11.1774     alpha+bet :-11.2673


 k-point     1 :       0.0625    0.0625    0.0625
  band No.  band energies     occupation 
      1      -0.2562      2.00000
      2       1.9374      2.00000
      3       1.9812      2.00000
      4       1.9812      2.00000
      5       2.6991      2.00000
      6       2.6991      2.00000
      7      21.6580      0.00000
      8      23.2652      0.00000
      9      24.2342      0.00000

 k-point     2 :       0.1875    0.0625    0.0625
  band No.  band energies     occupation 
      1       0.2707      2.00000
      2       1.8476      2.00000
      3       2.0885      2.00000
      4       2.1122      2.00000
      5       2.6076      2.00000
      6       2.7672      2.00000
      7      19.9141      0.00000
      8      21.5130      0.00000
      9      23.5612      0.00000

 k-point     3 :       0.3125    0.0625    0.0625
  band No.  band energies     occupation 
      1       0.9421      2.00000
      2       2.0562      2.00000
      3       2.1312      2.00000
      4       2.3393      2.00000
      5       2.7387      2.00000
      6       3.1484      2.00000
      7      15.3702      0.00000
      8      20.9254      0.00000
      9      22.9429      0.00000

 k-point     4 :       0.4375    0.0625    0.0625
  band No.  band energies     occupation 
      1       0.8977      2.00000
      2       1.9686      2.00000
      3       2.0211      2.00000
      4       3.0547      2.00000
      5       3.1026      2.00000
      6       4.8472      2.00000
      7      11.1474      0.00000
      8      20.5813      0.00000
      9      21.8332      0.00000

 k-point     5 :      -0.4375    0.0625    0.0625
  band No.  band energies     occupation 
      1       0.8471      2.00000
      2       1.9171      2.00000
      3       1.9908      2.00000
      4       3.1312      2.00000
      5       3.2927      2.00000
      6       6.3656      0.04044
      7       9.0857      0.00000
      8      20.7339      0.00000
      9      21.6849      0.00000

 k-point     6 :      -0.3125    0.0625    0.0625
  band No.  band energies     occupation 
      1       0.9308      2.00000
      2       1.9942      2.00000
      3       2.0727      2.00000
      4       2.7737      2.00000
      5       3.1570      2.00000
      6       4.0506      2.00000
      7      12.4741      0.00000
      8      21.2641      0.00000
      9      21.7152      0.00000

 k-point     7 :      -0.1875    0.0625    0.0625
  band No.  band energies     occupation 
      1       0.8096      2.00000
      2       1.9480      2.00000
      3       2.1548      2.00000
      4       2.1557      2.00000
      5       2.7567      2.00000
      6       2.8671      2.00000
      7      16.8839      0.00000
      8      21.9267      0.00000
      9      22.3368      0.00000

 k-point     8 :      -0.0625    0.0625    0.0625
  band No.  band energies     occupation 
      1       0.0181      2.00000
      2       1.8603      2.00000
      3       2.0610      2.00000
      4       2.0624      2.00000
      5       2.6203      2.00000
      6       2.7450      2.00000
      7      21.1949      0.00000
      8      22.3516      0.00000
      9      23.2158      0.00000

 k-point     9 :       0.1875    0.1875    0.0625
  band No.  band energies     occupation 
      1       0.5207      2.00000
      2       1.7059      2.00000
      3       2.2072      2.00000
      4       2.2182      2.00000
      5       2.5443      2.00000
      6       2.8303      2.00000
      7      20.1480      0.00000
      8      21.7138      0.00000
      9      21.8678      0.00000

 k-point    10 :       0.3125    0.1875    0.0625
  band No.  band energies     occupation 
      1       1.1839      2.00000
      2       1.6045      2.00000
      3       2.1285      2.00000
      4       2.4099      2.00000
      5       2.7992      2.00000
      6       3.2388      2.00000
      7      17.2915      0.00000
      8      19.1630      0.00000
      9      22.0053      0.00000

 k-point    11 :       0.4375    0.1875    0.0625
  band No.  band energies     occupation 
      1       1.1763      2.00000
      2       1.8791      2.00000
      3       2.1541      2.00000
      4       2.3722      2.00000
      5       3.1692      2.00000
      6       4.8995      2.00000
      7      12.8949      0.00000
      8      18.7628      0.00000
      9      19.9422      0.00000

 k-point    12 :      -0.4375    0.1875    0.0625
  band No.  band energies     occupation 
      1       1.1133      2.00000
      2       1.7689      2.00000
      3       2.2306      2.00000
      4       2.5889      2.00000
      5       3.2658      2.00000
      6       7.4283      0.00000
      7       9.3305      0.00000
      8      18.3909      0.00000
      9      19.2069      0.00000

 k-point    13 :      -0.3125    0.1875    0.0625
  band No.  band energies     occupation 
      1       1.1938      2.00000
      2       1.8284      2.00000
      3       2.2307      2.00000
      4       2.4808      2.00000
      5       3.0670      2.00000
      6       5.7575      2.00590
      7      11.5904      0.00000
      8      17.6639      0.00000
      9      20.4819      0.00000

 k-point    14 :      -0.1875    0.1875    0.0625
  band No.  band energies     occupation 
      1       1.3343      2.00000
      2       1.7632      2.00000
      3       2.0607      2.00000
      4       2.3957      2.00000
      5       2.6651      2.00000
      6       3.8020      2.00000
      7      15.8111      0.00000
      8      17.7919      0.00000
      9      22.3423      0.00000

 k-point    15 :      -0.0625    0.1875    0.0625
  band No.  band energies     occupation 
      1       0.7218      2.00000
      2       1.7475      2.00000
      3       2.1715      2.00000
      4       2.2149      2.00000
      5       2.5856      2.00000
      6       2.9164      2.00000
      7      18.5638      0.00000
      8      20.3752      0.00000
      9      23.2784      0.00000

 k-point    16 :       0.3125    0.3125    0.0625
  band No.  band energies     occupation 
      1       1.2142      2.00000
      2       1.3091      2.00000
      3       2.5921      2.00000
      4       2.6922      2.00000
      5       3.0715      2.00000
      6       3.5070      2.00000
      7      17.6678      0.00000
      8      18.6828      0.00000
      9      19.2902      0.00000

 k-point    17 :       0.4375    0.3125    0.0625
  band No.  band energies     occupation 
      1       1.1588      2.00000
      2       1.2774      2.00000
      3       2.5240      2.00000
      4       2.9112      2.00000
      5       3.1992      2.00000
      6       5.2788      2.00000
      7      15.1189      0.00000
      8      16.7024      0.00000
      9      17.0848      0.00000

 k-point    18 :      -0.4375    0.3125    0.0625
  band No.  band energies     occupation 
      1       1.1802      2.00000
      2       1.5211      2.00000
      3       2.3286      2.00000
      4       2.7293      2.00000
      5       3.3040      2.00000
      6       7.9910      0.00000
      7      11.2858      0.00000
      8      14.8994      0.00000
      9      17.2853      0.00000

 k-point    19 :      -0.3125    0.3125    0.0625
  band No.  band energies     occupation 
      1       1.3972      2.00000
      2       1.7746      2.00000
      3       2.0454      2.00000
      4       2.6024      2.00000
      5       3.0787      2.00000
      6       8.0868      0.00000
      7      11.4334      0.00000
      8      13.7250      0.00000
      9      18.5728      0.00000

 k-point    20 :      -0.1875    0.3125    0.0625
  band No.  band energies     occupation 
      1       1.5058      2.00000
      2       1.7638      2.00000
      3       2.0258      2.00000
      4       2.5129      2.00000
      5       2.8394      2.00000
      6       5.6239      2.00025
      7      13.4209      0.00000
      8      15.4730      0.00000
      9      20.4074      0.00000

 k-point    21 :      -0.0625    0.3125    0.0625
  band No.  band energies     occupation 
      1       1.0767      2.00000
      2       2.0025      2.00000
      3       2.1694      2.00000
      4       2.3336      2.00000
      5       2.9580      2.00000
      6       3.8067      2.00000
      7      14.0378      0.00000
      8      19.8094      0.00000
      9      22.0616      0.00000

 k-point    22 :       0.4375    0.4375    0.0625
  band No.  band energies     occupation 
      1       0.9212      2.00000
      2       0.9792      2.00000
      3       3.1353      2.00000
      4       3.1845      2.00000
      5       3.3238      2.00000
      6       6.3364      0.14525
      7      13.9916      0.00000
      8      15.8533      0.00000
      9      16.6034      0.00000

 k-point    23 :      -0.4375    0.4375    0.0625
  band No.  band energies     occupation 
      1       0.9365      2.00000
      2       1.0347      2.00000
      3       2.9833      2.00000
      4       3.1314      2.00000
      5       3.4060      2.00000
      6       8.3805      0.00000
      7      12.1149      0.00000
      8      14.2041      0.00000
      9      15.8263      0.00000

 k-point    24 :      -0.3125    0.4375    0.0625
  band No.  band energies     occupation 
      1       1.1394      2.00000
      2       1.4447      2.00000
      3       2.4326      2.00000
      4       2.8468      2.00000
      5       3.2862      2.00000
      6       9.7217      0.00000
      7      10.9145      0.00000
      8      12.7717      0.00000
      9      16.9586      0.00000

 k-point    25 :      -0.1875    0.4375    0.0625
  band No.  band energies     occupation 
      1       1.2952      2.00000
      2       1.6958      2.00000
      3       2.3128      2.00000
      4       2.4250      2.00000
      5       3.1932      2.00000
      6       8.2209      0.00000
      7       9.6878      0.00000
      8      15.9919      0.00000
      9      18.7849      0.00000

 k-point    26 :      -0.0625    0.4375    0.0625
  band No.  band energies     occupation 
      1       0.9654      2.00000
      2       1.8796      2.00000
      3       2.0853      2.00000
      4       2.8515      2.00000
      5       3.2390      2.00000
      6       6.0350      2.01945
      7      10.0753      0.00000
      8      19.8220      0.00000
      9      20.6751      0.00000

 k-point    27 :      -0.4375   -0.4375    0.0625
  band No.  band energies     occupation 
      1       0.8250      2.00000
      2       0.9038      2.00000
      3       3.2240      2.00000
      4       3.3337      2.00000
      5       3.4146      2.00000
      6       7.8221      0.00000
      7      12.0398      0.00000
      8      15.4149      0.00000
      9      16.1443      0.00000

 k-point    28 :      -0.3125   -0.4375    0.0625
  band No.  band energies     occupation 
      1       1.0241      2.00000
      2       1.1150      2.00000
      3       2.7896      2.00000
      4       3.0952      2.00000
      5       3.3167      2.00000
      6       6.8420     -0.00008
      7      13.9279      0.00000
      8      14.7742      0.00000
      9      16.2341      0.00000

 k-point    29 :      -0.1875   -0.4375    0.0625
  band No.  band energies     occupation 
      1       1.2091      2.00000
      2       1.6808      2.00000
      3       2.2041      2.00000
      4       2.5483      2.00000
      5       3.2784      2.00000
      6       6.3211      0.21722
      7      11.9630      0.00000
      8      17.3501      0.00000
      9      17.9308      0.00000

 k-point    30 :      -0.3125   -0.3125    0.0625
  band No.  band energies     occupation 
      1       1.0783      2.00000
      2       1.1248      2.00000
      3       2.9215      2.00000
      4       2.9451      2.00000
      5       3.2005      2.00000
      6       4.7722      2.00000
      7      16.3692      0.00000
      8      16.7970      0.00000
      9      17.4748      0.00000

 k-point    31 :      -0.1875   -0.3125    0.0625
  band No.  band energies     occupation 
      1       1.2858      2.00000
      2       1.4665      2.00000
      3       2.2435      2.00000
      4       2.6550      2.00000
      5       3.0400      2.00000
      6       4.0171      2.00000
      7      16.1346      0.00000
      8      17.9734      0.00000
      9      19.4628      0.00000

 k-point    32 :      -0.1875   -0.1875    0.0625
  band No.  band energies     occupation 
      1       1.0584      2.00000
      2       1.5100      2.00000
      3       2.3189      2.00000
      4       2.4362      2.00000
      5       2.7662      2.00000
      6       2.9438      2.00000
      7      18.9011      0.00000
      8      20.1354      0.00000
      9      21.4519      0.00000

 k-point    33 :       0.1875    0.1875    0.1875
  band No.  band energies     occupation 
      1       0.4756      2.00000
      2       1.9307      2.00000
      3       2.1020      2.00000
      4       2.1020      2.00000
      5       2.7073      2.00000
      6       2.7073      2.00000
      7      18.3391      0.00000
      8      22.3108      0.00000
      9      23.9600      0.00000

 k-point    34 :       0.3125    0.1875    0.1875
  band No.  band energies     occupation 
      1       1.0474      2.00000
      2       1.7751      2.00000
      3       2.1805      2.00000
      4       2.2604      2.00000
      5       2.5245      2.00000
      6       3.2354      2.00000
      7      17.1074      0.00000
      8      19.0310      0.00000
      9      23.8455      0.00000

 k-point    35 :       0.4375    0.1875    0.1875
  band No.  band energies     occupation 
      1       1.4337      2.00000
      2       1.8081      2.00000
      3       2.1725      2.00000
      4       2.3568      2.00000
      5       2.6498      2.00000
      6       4.5730      2.00000
      7      14.5183      0.00000
      8      16.5403      0.00000
      9      22.5712      0.00000

 k-point    36 :      -0.4375    0.1875    0.1875
  band No.  band energies     occupation 
      1       1.2296      2.00000
      2       1.7796      2.00000
      3       2.2817      2.00000
      4       2.4864      2.00000
      5       3.0857      2.00000
      6       6.8708     -0.00003
      7      10.5113      0.00000
      8      16.7167      0.00000
      9      20.9328      0.00000

 k-point    37 :      -0.3125    0.1875    0.1875
  band No.  band energies     occupation 
      1       1.1391      2.00000
      2       1.7664      2.00000
      3       2.3248      2.00000
      4       2.4019      2.00000
      5       3.3141      2.00000
      6       6.8311     -0.00011
      7      10.4371      0.00000
      8      17.7870      0.00000
      9      19.5663      0.00000

 k-point    38 :      -0.1875    0.1875    0.1875
  band No.  band energies     occupation 
      1       1.1958      2.00000
      2       1.7205      2.00000
      3       2.1760      2.00000
      4       2.4319      2.00000
      5       3.2023      2.00000
      6       4.3006      2.00000
      7      14.4197      0.00000
      8      19.3459      0.00000
      9      19.6130      0.00000

 k-point    39 :       0.3125    0.3125    0.1875
  band No.  band energies     occupation 
      1       1.1034      2.00000
      2       1.9111      2.00000
      3       2.0747      2.00000
      4       2.2661      2.00000
      5       3.0445      2.00000
      6       3.2956      2.00000
      7      15.5728      0.00000
      8      20.7463      0.00000
      9      21.4021      0.00000

 k-point    40 :       0.4375    0.3125    0.1875
  band No.  band energies     occupation 
      1       1.4089      2.00000
      2       1.7381      2.00000
      3       1.9296      2.00000
      4       2.6148      2.00000
      5       2.9144      2.00000
      6       4.7347      2.00000
      7      14.6871      0.00000
      8      16.6864      0.00000
      9      19.8279      0.00000

 k-point    41 :      -0.4375    0.3125    0.1875
  band No.  band energies     occupation 
      1       1.5618      2.00000
      2       1.6303      2.00000
      3       1.9144      2.00000
      4       2.6785      2.00000
      5       3.0664      2.00000
      6       6.9789      0.00000
      7      12.5268      0.00000
      8      14.6254      0.00000
      9      17.8602      0.00000

 k-point    42 :      -0.3125    0.3125    0.1875
  band No.  band energies     occupation 
      1       1.3915      2.00000
      2       1.6002      2.00000
      3       2.1112      2.00000
      4       2.6153      2.00000
      5       3.2572      2.00000
      6       8.8805      0.00000
      7      10.0572      0.00000
      8      15.4213      0.00000
      9      16.5204      0.00000

 k-point    43 :      -0.1875    0.3125    0.1875
  band No.  band energies     occupation 
      1       1.3316      2.00000
      2       1.5169      2.00000
      3       2.1096      2.00000
      4       2.8316      2.00000
      5       3.1153      2.00000
      6       6.0455      1.99832
      7      13.7548      0.00000
      8      15.7394      0.00000
      9      17.2778      0.00000

 k-point    44 :       0.4375    0.4375    0.1875
  band No.  band energies     occupation 
      1       1.1407      2.00000
      2       1.4785      2.00000
      3       2.4293      2.00000
      4       2.6359      2.00000
      5       3.3105      2.00000
      6       5.6583      2.00062
      7      13.4533      0.00000
      8      17.0064      0.00000
      9      18.2195      0.00000

 k-point    45 :      -0.4375    0.4375    0.1875
  band No.  band energies     occupation 
      1       1.2225      2.00000
      2       1.3455      2.00000
      3       2.3311      2.00000
      4       2.9405      2.00000
      5       3.2859      2.00000
      6       7.6422      0.00000
      7      13.0310      0.00000
      8      14.5397      0.00000
      9      15.4125      0.00000

 k-point    46 :      -0.3125    0.4375    0.1875
  band No.  band energies     occupation 
      1       1.3409      2.00000
      2       1.5883      2.00000
      3       2.0108      2.00000
      4       2.7613      2.00000
      5       3.4025      2.00000
      6      10.3685      0.00000
      7      11.4937      0.00000
      8      12.8520      0.00000
      9      14.1709      0.00000

 k-point    47 :      -0.1875    0.4375    0.1875
  band No.  band energies     occupation 
      1       1.4451      2.00000
      2       1.5938      2.00000
      3       1.9452      2.00000
      4       2.7553      2.00000
      5       3.2716      2.00000
      6       8.6045      0.00000
      7      11.8697      0.00000
      8      13.9630      0.00000
      9      15.5042      0.00000

 k-point    48 :      -0.4375   -0.4375    0.1875
  band No.  band energies     occupation 
      1       0.9866      2.00000
      2       1.2042      2.00000
      3       2.8143      2.00000
      4       3.0011      2.00000
      5       3.3327      2.00000
      6       8.8788      0.00000
      7      11.9800      0.00000
      8      12.8609      0.00000
      9      17.0201      0.00000

 k-point    49 :      -0.3125   -0.4375    0.1875
  band No.  band energies     occupation 
      1       1.1383      2.00000
      2       1.2722      2.00000
      3       2.4990      2.00000
      4       2.9372      2.00000
      5       3.4033      2.00000
      6       9.2922      0.00000
      7      12.1760      0.00000
      8      13.0833      0.00000
      9      14.9384      0.00000

 k-point    50 :      -0.3125   -0.3125    0.1875
  band No.  band energies     occupation 
      1       1.0504      2.00000
      2       1.2956      2.00000
      3       2.6701      2.00000
      4       2.8447      2.00000
      5       3.3507      2.00000
      6       7.2700      0.00000
      7      12.7072      0.00000
      8      14.5621      0.00000
      9      17.4286      0.00000

 k-point    51 :       0.3125    0.3125    0.3125
  band No.  band energies     occupation 
      1       0.8962      2.00000
      2       2.0619      2.00000
      3       2.0619      2.00000
      4       2.9652      2.00000
      5       2.9652      2.00000
      6       3.0625      2.00000
      7      13.8194      0.00000
      8      21.6904      0.00000
      9      23.1725      0.00000

 k-point    52 :       0.4375    0.3125    0.3125
  band No.  band energies     occupation 
      1       1.1101      2.00000
      2       1.9388      2.00000
      3       2.1617      2.00000
      4       2.5829      2.00000
      5       2.8881      2.00000
      6       4.6238      2.00000
      7      12.7085      0.00000
      8      18.6522      0.00000
      9      22.1716      0.00000

 k-point    53 :      -0.4375    0.3125    0.3125
  band No.  band energies     occupation 
      1       1.4545      2.00000
      2       1.8040      2.00000
      3       2.1236      2.00000
      4       2.4703      2.00000
      5       2.9096      2.00000
      6       6.7289     -0.00162
      7      12.3373      0.00000
      8      14.4687      0.00000
      9      20.7618      0.00000

 k-point    54 :      -0.3125    0.3125    0.3125
  band No.  band energies     occupation 
      1       1.2245      2.00000
      2       1.6664      2.00000
      3       2.2607      2.00000
      4       2.7054      2.00000
      5       3.1550      2.00000
      6       9.4002      0.00000
      7      10.4765      0.00000
      8      13.1064      0.00000
      9      18.6222      0.00000

 k-point    55 :       0.4375    0.4375    0.3125
  band No.  band energies     occupation 
      1       1.0258      2.00000
      2       1.8878      2.00000
      3       2.1646      2.00000
      4       2.5649      2.00000
      5       3.2804      2.00000
      6       5.3169      2.00000
      7      11.3414      0.00000
      8      20.1698      0.00000
      9      20.4995      0.00000

 k-point    56 :      -0.4375    0.4375    0.3125
  band No.  band energies     occupation 
      1       1.3096      2.00000
      2       1.6846      2.00000
      3       2.2261      2.00000
      4       2.4746      2.00000
      5       3.2021      2.00000
      6       7.1914      0.00000
      7      10.6951      0.00000
      8      16.8564      0.00000
      9      18.0519      0.00000

 k-point    57 :      -0.3125    0.4375    0.3125
  band No.  band energies     occupation 
      1       1.3667      2.00000
      2       1.6512      2.00000
      3       2.0231      2.00000
      4       2.7122      2.00000
      5       3.2702      2.00000
      6       9.6960      0.00000
      7      10.7517      0.00000
      8      13.2365      0.00000
      9      16.2053      0.00000

 k-point    58 :      -0.4375   -0.4375    0.3125
  band No.  band energies     occupation 
      1       1.2121      2.00000
      2       1.6844      2.00000
      3       2.3029      2.00000
      4       2.5258      2.00000
      5       3.2578      2.00000
      6       8.5560      0.00000
      7       9.8067      0.00000
      8      15.3340      0.00000
      9      18.9376      0.00000

 k-point    59 :       0.4375    0.4375    0.4375
  band No.  band energies     occupation 
      1       0.8105      2.00000
      2       1.9618      2.00000
      3       1.9618      2.00000
      4       3.2467      2.00000
      5       3.2467      2.00000
      6       5.4592      2.00000
      7       9.8961      0.00000
      8      21.0453      0.00000
      9      22.3658      0.00000

 k-point    60 :      -0.4375    0.4375    0.4375
  band No.  band energies     occupation 
      1       0.9957      2.00000
      2       1.8449      2.00000
      3       2.1040      2.00000
      4       2.8475      2.00000
      5       3.2333      2.00000
      6       6.9466      0.00000
      7       9.2083      0.00000
      8      19.0068      0.00000
      9      21.2763      0.00000


--------------------------------------------------------------------------------------------------------


 soft charge-density along one line, spin component           1
         0         1         2         3         4         5         6         7         8         9
x     5.7178    0.0000    1.2489    0.0000   -0.3036    0.0000   -0.0592    0.0000    0.0235    0.0000
x     0.0036    0.0000    0.0000    0.0000    0.0000    0.0000
y     5.7178    0.0000    1.2489    0.0000   -0.3036    0.0000   -0.0592    0.0000    0.0235    0.0000
y     0.0036    0.0000    0.0000    0.0000    0.0000    0.0000
z     5.7178    0.0000    1.2489    0.0000   -0.3036    0.0000   -0.0592    0.0000    0.0235    0.0000
z     0.0036    0.0000    0.0000    0.0000    0.0000    0.0000
 total charge-density along one line
x    11.0000    0.0000    5.0624    0.0000    0.9902    0.0000    0.0378    0.0000    0.0055    0.0000
x     0.0083    0.0000   -0.0017    0.0000    0.0006    0.0000   -0.0002    0.0000    0.0001    0.0000
x     0.0000    0.0000    0.0000    0.0000    0.0000    0.0000    0.0000    0.0000    0.0000    0.0000
y    11.0000    0.0000    5.0624    0.0000    0.9902    0.0000    0.0378    0.0000    0.0055    0.0000
y     0.0083    0.0000   -0.0017    0.0000    0.0006    0.0000   -0.0002    0.0000    0.0001    0.0000
y     0.0000    0.0000    0.0000    0.0000    0.0000    0.0000    0.0000    0.0000    0.0000    0.0000
z    11.0000    0.0000    5.0624    0.0000    0.9902    0.0000    0.0378    0.0000    0.0055    0.0000
z     0.0083    0.0000   -0.0017    0.0000    0.0006    0.0000   -0.0002    0.0000    0.0001    0.0000
z     0.0000    0.0000    0.0000    0.0000    0.0000    0.0000    0.0000    0.0000    0.0000    0.0000
 
 pseudopotential strength for first ion, spin component:           1
 -5.082   0.000   0.000  -0.004   0.000  -5.271   0.000   0.000
  0.000  -5.079   0.000   0.000  -0.004   0.000  -5.269   0.000
  0.000   0.000  -5.084   0.000   0.000   0.000   0.000  -5.274
 -0.004   0.000   0.000  -5.079   0.000  -0.004   0.000   0.000
  0.000  -0.004   0.000   0.000  -5.082   0.000  -0.004   0.000
 -5.271   0.000   0.000  -0.004   0.000  -5.428   0.000   0.000
  0.000  -5.269   0.000   0.000  -0.004   0.000  -5.426   0.000
  0.000   0.000  -5.274   0.000   0.000   0.000   0.000  -5.431
 -0.004   0.000   0.000  -5.269   0.000  -0.003   0.000   0.000
  0.000  -0.004   0.000   0.000  -5.271   0.000  -0.003   0.000
  0.000   0.000   0.000   0.000   0.000   0.000   0.000   0.000
  0.000   0.000   0.000   0.000   0.000   0.000   0.000   0.000
  0.000   0.000   0.000   0.000   0.000   0.000   0.000   0.000
  0.000   0.000   0.000   0.000   0.000   0.000   0.000   0.000
  0.000   0.000   0.000   0.000   0.000   0.000   0.000   0.000
  0.000   0.000   0.000   0.000   0.000   0.000   0.000   0.000
  0.000   0.000   0.000   0.000   0.000   0.000   0.000   0.000
  0.000   0.000   0.000   0.000   0.000   0.000   0.000   0.000
 total augmentation occupancy for first ion, spin component:           1
  3.008   0.000   0.000  -0.008   0.000  -0.931   0.000   0.000  -0.039   0.000   0.000   0.000   0.000   0.000   0.000   0.000
  0.000   3.013   0.000   0.000  -0.008   0.000  -0.904   0.000   0.000  -0.039   0.000   0.000   0.000   0.000   0.000   0.000
  0.000   0.000   3.002   0.000   0.000   0.000   0.000  -0.958   0.000   0.000   0.000   0.000   0.000   0.000   0.000   0.000
 -0.008   0.000   0.000   3.013   0.000  -0.039   0.000   0.000  -0.904   0.000   0.000   0.000   0.000   0.000   0.000   0.000
  0.000  -0.008   0.000   0.000   3.008   0.000  -0.039   0.000   0.000  -0.931   0.000   0.000   0.000   0.000   0.000   0.000
 -0.931   0.000   0.000  -0.039   0.000   0.810   0.000   0.000   0.076   0.000   0.000   0.000   0.000   0.000   0.000   0.000
  0.000  -0.904   0.000   0.000  -0.039   0.000   0.756   0.000   0.000   0.076   0.000   0.000   0.000   0.000   0.000   0.000
  0.000   0.000  -0.958   0.000   0.000   0.000   0.000   0.863   0.000   0.000   0.000   0.000   0.000   0.000   0.000   0.000
 -0.039   0.000   0.000  -0.904   0.000   0.076   0.000   0.000   0.756   0.000   0.000   0.000   0.000   0.000   0.000   0.000
  0.000  -0.039   0.000   0.000  -0.931   0.000   0.076   0.000   0.000   0.810   0.000   0.000   0.000   0.000   0.000   0.000
  0.000   0.000   0.000   0.000   0.000   0.000   0.000   0.000   0.000   0.000   1.789  -0.298   0.000   0.000   0.000   0.000
  0.000   0.000   0.000   0.000   0.000   0.000   0.000   0.000   0.000   0.000  -0.298   0.063   0.000   0.000   0.000   0.000
  0.000   0.000   0.000   0.000   0.000   0.000   0.000   0.000   0.000   0.000   0.000   0.000   0.117   0.000   0.000  -0.007
  0.000   0.000   0.000   0.000   0.000   0.000   0.000   0.000   0.000   0.000   0.000   0.000   0.000   0.117   0.000   0.000
  0.000   0.000   0.000   0.000   0.000   0.000   0.000   0.000   0.000   0.000   0.000   0.000   0.000   0.000   0.117   0.000
  0.000   0.000   0.000   0.000   0.000   0.000   0.000   0.000   0.000   0.000   0.000   0.000  -0.007   0.000   0.000   0.000
  0.000   0.000   0.000   0.000   0.000   0.000   0.000   0.000   0.000   0.000   0.000   0.000   0.000  -0.007   0.000   0.000
  0.000   0.000   0.000   0.000   0.000   0.000   0.000   0.000   0.000   0.000   0.000   0.000   0.000   0.000  -0.007   0.000


------------------------ aborting loop because EDIFF is reached ----------------------------------------


    CHARGE:  cpu time    0.06: real time    0.06
    FORLOC:  cpu time    0.00: real time    0.00
    FORNL :  cpu time    0.09: real time    0.09
    STRESS:  cpu time    0.34: real time    0.34
    FORCOR:  cpu time    0.03: real time    0.03
    FORHAR:  cpu time    0.01: real time    0.01
    MIXING:  cpu time    0.00: real time    0.00
    OFIELD:  cpu time    0.00: real time    0.00

  FORCE on cell =-STRESS in cart. coord.  units (eV):
  Direction    XX          YY          ZZ          XY          YZ          ZX
  --------------------------------------------------------------------------------------
  Alpha Z    41.75290    41.75290    41.75290
  Ewald    -307.10530  -307.10530  -307.10530     0.00000     0.00000     0.00000
  Hartree    73.08911    73.08911    73.08911     0.00000     0.00000     0.00000
  E(xc)     -57.85904   -57.85904   -57.85904    -0.00001     0.00000     0.00000
  Local      31.78486    31.78458    31.78451     0.00025     0.00010     0.00018
  n-local   -12.06781   -11.04998   -10.27854    -0.58086    -0.15901     1.43664
  augment    92.16575    92.16601    92.16608    -0.00023    -0.00009    -0.00016
  Kinetic   136.48931   136.63942   135.37195    -0.14779     0.04660    -0.65068
  Fock        0.00000     0.00000     0.00000     0.00000     0.00000     0.00000
  -------------------------------------------------------------------------------------
  Total      -1.13695    -1.13695    -1.13695     0.00000     0.00000     0.00000
  in kB     -89.41778   -89.41778   -89.41778     0.00000     0.00000     0.00000
  external pressure =      -89.42 kB  Pullay stress =        0.00 kB


 VOLUME and BASIS-vectors are now :
 -----------------------------------------------------------------------------
  energy-cutoff  :      350.00
  volume of cell :       20.37
      direct lattice vectors                 reciprocal lattice vectors
     3.065590739  0.000000000  0.000000000     0.326201403 -0.188332468 -0.133171165
     1.532795370  2.654879458  0.000000000     0.000000000  0.376664936 -0.133171165
     1.532795370  0.884959819  2.503044357     0.000000000  0.000000000  0.399513495

  length of vectors
     3.065590739  3.065590739  3.065590739     0.399513495  0.399513495  0.399513495


 FORCES acting on ions
    electron-ion (+dipol)            ewald-force                    non-local-force                 convergence-correction
 -----------------------------------------------------------------------------------------------
   -.468E-13 0.247E-14 0.102E-13   -.404E-15 0.325E-15 0.471E-15   -.331E-22 -.331E-23 0.000E+00   -.347E-13 -.376E-13 -.980E-14
 -----------------------------------------------------------------------------------------------
   -.468E-13 0.247E-14 0.102E-13   -.404E-15 0.325E-15 0.471E-15   -.331E-22 -.331E-23 0.000E+00   -.347E-13 -.376E-13 -.980E-14
 
 
 POSITION                                       TOTAL-FORCE (eV/Angst)
 -----------------------------------------------------------------------------------
      0.00000      0.00000      0.00000         0.000000      0.000000      0.000000
 -----------------------------------------------------------------------------------
    total drift:                                0.000000      0.000000      0.000000


--------------------------------------------------------------------------------------------------------



  FREE ENERGIE OF THE ION-ELECTRON SYSTEM (eV)
  ---------------------------------------------------
  free  energy   TOTEN  =        -2.64512198 eV

  energy  without entropy=       -2.64536871  energy(sigma->0) =       -2.64520422
 


--------------------------------------------------------------------------------------------------------


    POTLOK:  cpu time    0.03: real time    0.03


--------------------------------------------------------------------------------------------------------


 stress matrix after NEB project (eV)
     -1.13695      0.00000      0.00000
      0.00000     -1.13695      0.00000
      0.00000      0.00000     -1.13695
  FORCES: max atom, RMS     0.000000    0.000000
  FORCE total and by dimension    0.000000    0.000000
  Stress total and by dimension    1.969253    1.136949


--------------------------------------------------------------------------------------------------------


  
 reached required accuracy - stopping structural energy minimisation
 writing wavefunctions
     LOOP+:  cpu time    8.40: real time    8.69
    4ORBIT:  cpu time    0.00: real time    0.00

 total amount of memory used by VASP on root node    36799. kBytes
========================================================================

   base      :      30000. kBytes
   nonl-proj :       2709. kBytes
   grid      :       1216. kBytes
   one-center:         15. kBytes
   wavefun   :       2859. kBytes
 
  
  
 General timing and accounting informations for this job:
 ========================================================
  
                  Total CPU time used (sec):        8.834
                            User time (sec):        8.714
                          System time (sec):        0.120
                         Elapsed time (sec):        9.327
  
                   Maximum memory used (kb):           0.
                   Average memory used (kb):           0.
  
                          Minor page faults:         5745
                          Major page faults:            0
                 Voluntary context switches:         3492
