<?xml version="1.0" encoding="ISO-8859-1"?>
<modeling>
 <generator>
  <i name="program" type="string">vasp </i>
  <i name="version" type="string">5.3.5  </i>
  <i name="subversion" type="string">31Mar14 (build Jan 09 2015 16:57:47) complex                          serial </i>
  <i name="platform" type="string">LinuxIFC </i>
  <i name="date" type="string">2015 03 24 </i>
  <i name="time" type="string">14:26:01 </i>
 </generator>
 <incar>
  <i type="string" name="PREC">normal</i>
  <i type="int" name="IBRION">     2</i>
  <i type="int" name="NSW">    30</i>
  <i type="int" name="ISIF">     2</i>
  <i name="ENCUT">    350.00000000</i>
 </incar>
 <kpoints>
  <generation param="Monkhorst-Pack">
   <v type="int" name="divisions">       8        8        8 </v>
   <v name="usershift">      0.00000000       0.00000000       0.00000000 </v>
   <v name="genvec1">      0.12500000       0.00000000       0.00000000 </v>
   <v name="genvec2">      0.00000000       0.12500000       0.00000000 </v>
   <v name="genvec3">      0.00000000       0.00000000       0.12500000 </v>
   <v name="shift">      0.50000000       0.50000000       0.50000000 </v>
  </generation>
  <varray name="kpointlist" >
   <v>       0.06250000       0.06250000       0.06250000 </v>
   <v>       0.18750000       0.06250000       0.06250000 </v>
   <v>       0.31250000       0.06250000       0.06250000 </v>
   <v>       0.43750000       0.06250000       0.06250000 </v>
   <v>      -0.43750000       0.06250000       0.06250000 </v>
   <v>      -0.31250000       0.06250000       0.06250000 </v>
   <v>      -0.18750000       0.06250000       0.06250000 </v>
   <v>      -0.06250000       0.06250000       0.06250000 </v>
   <v>       0.18750000       0.18750000       0.06250000 </v>
   <v>       0.31250000       0.18750000       0.06250000 </v>
   <v>       0.43750000       0.18750000       0.06250000 </v>
   <v>      -0.43750000       0.18750000       0.06250000 </v>
   <v>      -0.31250000       0.18750000       0.06250000 </v>
   <v>      -0.18750000       0.18750000       0.06250000 </v>
   <v>      -0.06250000       0.18750000       0.06250000 </v>
   <v>       0.31250000       0.31250000       0.06250000 </v>
   <v>       0.43750000       0.31250000       0.06250000 </v>
   <v>      -0.43750000       0.31250000       0.06250000 </v>
   <v>      -0.31250000       0.31250000       0.06250000 </v>
   <v>      -0.18750000       0.31250000       0.06250000 </v>
   <v>      -0.06250000       0.31250000       0.06250000 </v>
   <v>       0.43750000       0.43750000       0.06250000 </v>
   <v>      -0.43750000       0.43750000       0.06250000 </v>
   <v>      -0.31250000       0.43750000       0.06250000 </v>
   <v>      -0.18750000       0.43750000       0.06250000 </v>
   <v>      -0.06250000       0.43750000       0.06250000 </v>
   <v>      -0.43750000      -0.43750000       0.06250000 </v>
   <v>      -0.31250000      -0.43750000       0.06250000 </v>
   <v>      -0.18750000      -0.43750000       0.06250000 </v>
   <v>      -0.31250000      -0.31250000       0.06250000 </v>
   <v>      -0.18750000      -0.31250000       0.06250000 </v>
   <v>      -0.18750000      -0.18750000       0.06250000 </v>
   <v>       0.18750000       0.18750000       0.18750000 </v>
   <v>       0.31250000       0.18750000       0.18750000 </v>
   <v>       0.43750000       0.18750000       0.18750000 </v>
   <v>      -0.43750000       0.18750000       0.18750000 </v>
   <v>      -0.31250000       0.18750000       0.18750000 </v>
   <v>      -0.18750000       0.18750000       0.18750000 </v>
   <v>       0.31250000       0.31250000       0.18750000 </v>
   <v>       0.43750000       0.31250000       0.18750000 </v>
   <v>      -0.43750000       0.31250000       0.18750000 </v>
   <v>      -0.31250000       0.31250000       0.18750000 </v>
   <v>      -0.18750000       0.31250000       0.18750000 </v>
   <v>       0.43750000       0.43750000       0.18750000 </v>
   <v>      -0.43750000       0.43750000       0.18750000 </v>
   <v>      -0.31250000       0.43750000       0.18750000 </v>
   <v>      -0.18750000       0.43750000       0.18750000 </v>
   <v>      -0.43750000      -0.43750000       0.18750000 </v>
   <v>      -0.31250000      -0.43750000       0.18750000 </v>
   <v>      -0.31250000      -0.31250000       0.18750000 </v>
   <v>       0.31250000       0.31250000       0.31250000 </v>
   <v>       0.43750000       0.31250000       0.31250000 </v>
   <v>      -0.43750000       0.31250000       0.31250000 </v>
   <v>      -0.31250000       0.31250000       0.31250000 </v>
   <v>       0.43750000       0.43750000       0.31250000 </v>
   <v>      -0.43750000       0.43750000       0.31250000 </v>
   <v>      -0.31250000       0.43750000       0.31250000 </v>
   <v>      -0.43750000      -0.43750000       0.31250000 </v>
   <v>       0.43750000       0.43750000       0.43750000 </v>
   <v>      -0.43750000       0.43750000       0.43750000 </v>
  </varray>
  <varray name="weights" >
   <v>       0.00390625 </v>
   <v>       0.01171875 </v>
   <v>       0.01171875 </v>
   <v>       0.01171875 </v>
   <v>       0.01171875 </v>
   <v>       0.01171875 </v>
   <v>       0.01171875 </v>
   <v>       0.01171875 </v>
   <v>       0.01171875 </v>
   <v>       0.02343750 </v>
   <v>       0.02343750 </v>
   <v>       0.02343750 </v>
   <v>       0.02343750 </v>
   <v>       0.02343750 </v>
   <v>       0.02343750 </v>
   <v>       0.01171875 </v>
   <v>       0.02343750 </v>
   <v>       0.02343750 </v>
   <v>       0.02343750 </v>
   <v>       0.02343750 </v>
   <v>       0.02343750 </v>
   <v>       0.01171875 </v>
   <v>       0.02343750 </v>
   <v>       0.02343750 </v>
   <v>       0.02343750 </v>
   <v>       0.02343750 </v>
   <v>       0.01171875 </v>
   <v>       0.02343750 </v>
   <v>       0.02343750 </v>
   <v>       0.01171875 </v>
   <v>       0.02343750 </v>
   <v>       0.01171875 </v>
   <v>       0.00390625 </v>
   <v>       0.01171875 </v>
   <v>       0.01171875 </v>
   <v>       0.01171875 </v>
   <v>       0.01171875 </v>
   <v>       0.01171875 </v>
   <v>       0.01171875 </v>
   <v>       0.02343750 </v>
   <v>       0.02343750 </v>
   <v>       0.02343750 </v>
   <v>       0.02343750 </v>
   <v>       0.01171875 </v>
   <v>       0.02343750 </v>
   <v>       0.02343750 </v>
   <v>       0.02343750 </v>
   <v>       0.01171875 </v>
   <v>       0.02343750 </v>
   <v>       0.01171875 </v>
   <v>       0.00390625 </v>
   <v>       0.01171875 </v>
   <v>       0.01171875 </v>
   <v>       0.01171875 </v>
   <v>       0.01171875 </v>
   <v>       0.02343750 </v>
   <v>       0.02343750 </v>
   <v>       0.01171875 </v>
   <v>       0.00390625 </v>
   <v>       0.01171875 </v>
  </varray>
 </kpoints>
 <parameters>
  <separator name="general" >
   <i type="string" name="SYSTEM">unknown system</i>
   <i type="logical" name="LCOMPAT"> F  </i>
  </separator>
  <separator name="electronic" >
   <i type="string" name="PREC">normal</i>
   <i name="ENMAX">    350.00000000</i>
   <i name="ENAUG">    412.49600000</i>
   <i name="EDIFF">      0.00010000</i>
   <i type="int" name="IALGO">    38</i>
   <i type="int" name="IWAVPR">    11</i>
   <i type="int" name="NBANDS">     9</i>
   <i name="NELECT">     11.00000000</i>
   <i type="int" name="TURBO">     0</i>
   <i type="int" name="IRESTART">     0</i>
   <i type="int" name="NREBOOT">     0</i>
   <i type="int" name="NMIN">     0</i>
   <i name="EREF">      0.00000000</i>
   <separator name="electronic smearing" >
    <i type="int" name="ISMEAR">     1</i>
    <i name="SIGMA">      0.20000000</i>
    <i name="KSPACING">      0.50000000</i>
    <i type="logical" name="KGAMMA"> T  </i>
   </separator>
   <separator name="electronic projectors" >
    <i type="logical" name="LREAL"> F  </i>
    <v name="ROPT">      0.00000000</v>
    <i type="int" name="LMAXPAW">  -100</i>
    <i type="int" name="LMAXMIX">     2</i>
    <i type="logical" name="NLSPLINE"> F  </i>
   </separator>
   <separator name="electronic startup" >
    <i type="int" name="ISTART">     0</i>
    <i type="int" name="ICHARG">     2</i>
    <i type="int" name="INIWAV">     1</i>
   </separator>
   <separator name="electronic spin" >
    <i type="int" name="ISPIN">     1</i>
    <i type="logical" name="LNONCOLLINEAR"> F  </i>
    <v name="MAGMOM">      1.00000000</v>
    <i name="NUPDOWN">     -1.00000000</i>
    <i type="logical" name="LSORBIT"> F  </i>
    <v name="SAXIS">      0.00000000      0.00000000      1.00000000</v>
    <i type="logical" name="LSPIRAL"> F  </i>
    <v name="QSPIRAL">      0.00000000      0.00000000      0.00000000</v>
    <i type="logical" name="LZEROZ"> F  </i>
   </separator>
   <separator name="electronic exchange-correlation" >
    <i type="logical" name="LASPH"> F  </i>
    <i type="logical" name="LMETAGGA"> F  </i>
   </separator>
   <separator name="electronic convergence" >
    <i type="int" name="NELM">    60</i>
    <i type="int" name="NELMDL">    -5</i>
    <i type="int" name="NELMIN">     2</i>
    <i name="ENINI">    350.00000000</i>
    <separator name="electronic convergence detail" >
     <i type="logical" name="LDIAG"> T  </i>
     <i type="logical" name="LSUBROT"> F  </i>
     <i name="WEIMIN">      0.00100000</i>
     <i name="EBREAK">      0.00000278</i>
     <i name="DEPER">      0.30000000</i>
     <i type="int" name="NRMM">     4</i>
     <i name="TIME">      0.40000000</i>
    </separator>
   </separator>
   <separator name="electronic mixer" >
    <i name="AMIX">      0.40000000</i>
    <i name="BMIX">      1.00000000</i>
    <i name="AMIN">      0.10000000</i>
    <i name="AMIX_MAG">      1.60000000</i>
    <i name="BMIX_MAG">      1.00000000</i>
    <separator name="electronic mixer details" >
     <i type="int" name="IMIX">     4</i>
     <i type="int" name="MAXMIX">   -45</i>
     <i name="WC">    100.00000000</i>
     <i type="int" name="INIMIX">     1</i>
     <i type="int" name="MIXPRE">     1</i>
     <i type="int" name="MREMOVE">     5</i>
    </separator>
   </separator>
   <separator name="electronic dipolcorrection" >
    <i type="logical" name="LDIPOL"> F  </i>
    <i type="logical" name="LMONO"> F  </i>
    <i type="int" name="IDIPOL">     0</i>
    <i name="EPSILON">      1.00000000</i>
    <v name="DIPOL">   -100.00000000   -100.00000000   -100.00000000</v>
    <i name="EFIELD">      0.00000000</i>
   </separator>
  </separator>
  <separator name="grids" >
   <i type="int" name="NGX">    14</i>
   <i type="int" name="NGY">    14</i>
   <i type="int" name="NGZ">    14</i>
   <i type="int" name="NGXF">    28</i>
   <i type="int" name="NGYF">    28</i>
   <i type="int" name="NGZF">    28</i>
   <i type="logical" name="ADDGRID"> F  </i>
  </separator>
  <separator name="ionic" >
   <i type="int" name="NSW">    30</i>
   <i type="int" name="IBRION">     2</i>
   <i type="int" name="ISIF">     2</i>
   <i name="PSTRESS">      0.00000000</i>
   <i name="EDIFFG">      0.00100000</i>
   <i type="int" name="NFREE">     1</i>
   <i name="POTIM">      0.50000000</i>
   <i name="SMASS">     -3.00000000</i>
   <i name="SCALEE">      1.00000000</i>
  </separator>
  <separator name="ionic md" >
   <i name="TEBEG">      0.00010000</i>
   <i name="TEEND">      0.00010000</i>
   <i type="int" name="NBLOCK">     1</i>
   <i type="int" name="KBLOCK">    30</i>
   <i type="int" name="NPACO">   256</i>
   <i name="APACO">     16.00000000</i>
  </separator>
  <separator name="symmetry" >
   <i type="int" name="ISYM">     2</i>
   <i name="SYMPREC">      0.00001000</i>
  </separator>
  <separator name="dos" >
   <i type="logical" name="LORBIT"> F  </i>
   <v name="RWIGS">     -1.00000000</v>
   <i type="int" name="NEDOS">   301</i>
   <i name="EMIN">     10.00000000</i>
   <i name="EMAX">    -10.00000000</i>
   <i name="EFERMI">      0.00000000</i>
  </separator>
  <separator name="writing" >
   <i type="int" name="NWRITE">     2</i>
   <i type="logical" name="LWAVE"> T  </i>
   <i type="logical" name="LCHARG"> T  </i>
   <i type="logical" name="LPARD"> F  </i>
   <i type="logical" name="LVTOT"> F  </i>
   <i type="logical" name="LVHAR"> F  </i>
   <i type="logical" name="LELF"> F  </i>
   <i type="logical" name="LOPTICS"> F  </i>
   <v name="STM">      0.00000000      0.00000000      0.00000000      0.00000000      0.00000000      0.00000000      0.00000000</v>
  </separator>
  <separator name="performance" >
   <i type="int" name="NPAR">     1</i>
   <i type="int" name="NSIM">     4</i>
   <i type="int" name="NBLK">    -1</i>
   <i type="logical" name="LPLANE"> T  </i>
   <i type="logical" name="LSCALAPACK"> F  </i>
   <i type="logical" name="LSCAAWARE"> F  </i>
   <i type="logical" name="LSCALU"> F  </i>
   <i type="logical" name="LASYNC"> F  </i>
   <i type="logical" name="LORBITALREAL"> F  </i>
  </separator>
  <separator name="miscellaneous" >
   <i type="int" name="IDIOT">     3</i>
   <i type="logical" name="LMUSIC"> F  </i>
   <v name="POMASS">    107.86800000</v>
   <v name="DARWINR">      0.00000000</v>
   <v name="DARWINV">      1.00000000</v>
   <i type="logical" name="LCORR"> T  </i>
  </separator>
  <i type="logical" name="GGA_COMPAT"> T  </i>
  <i type="logical" name="LBERRY"> F  </i>
  <i type="int" name="ICORELEVEL">     0</i>
  <i type="logical" name="LDAU"> F  </i>
  <i type="int" name="I_CONSTRAINED_M">     0</i>
  <separator name="electronic exchange-correlation" >
   <i type="string" name="GGA">--</i>
   <i type="int" name="VOSKOWN">     0</i>
   <i type="logical" name="LHFCALC"> F  </i>
   <i type="string" name="PRECFOCK"></i>
   <i type="logical" name="LSYMGRAD"> F  </i>
   <i type="logical" name="LHFONE"> F  </i>
   <i type="logical" name="LRHFCALC"> F  </i>
   <i type="logical" name="LTHOMAS"> F  </i>
   <i type="logical" name="LMODELHF"> F  </i>
   <i name="ENCUT4O">     -1.00000000</i>
   <i type="int" name="EXXOEP">     0</i>
   <i type="int" name="FOURORBIT">     0</i>
   <i name="AEXX">      0.00000000</i>
   <i name="HFALPHA">      0.00000000</i>
   <i name="MCALPHA">      0.00000000</i>
   <i name="ALDAX">      1.00000000</i>
   <i name="AGGAX">      1.00000000</i>
   <i name="ALDAC">      1.00000000</i>
   <i name="AGGAC">      1.00000000</i>
   <i type="int" name="NKREDX">     1</i>
   <i type="int" name="NKREDY">     1</i>
   <i type="int" name="NKREDZ">     1</i>
   <i type="logical" name="SHIFTRED"> F  </i>
   <i type="logical" name="ODDONLY"> F  </i>
   <i type="logical" name="EVENONLY"> F  </i>
   <i type="int" name="LMAXFOCK">     0</i>
   <i type="int" name="NMAXFOCKAE">     0</i>
   <i type="logical" name="LFOCKAEDFT"> F  </i>
   <i name="HFSCREEN">      0.00000000</i>
   <i name="HFSCREENC">      0.00000000</i>
   <i type="int" name="NBANDSGWLOW">     0</i>
  </separator>
  <separator name="vdW DFT" >
   <i type="logical" name="LUSE_VDW"> F  </i>
   <i name="Zab_VDW">     -0.84910000</i>
   <i name="PARAM1">      0.12340000</i>
   <i name="PARAM2">      1.00000000</i>
   <i name="PARAM3">      0.00000000</i>
  </separator>
  <separator name="model GW" >
   <i type="int" name="MODEL_GW">     0</i>
   <i name="MODEL_EPS0">     12.22302722</i>
   <i name="MODEL_ALPHA">      1.00000000</i>
  </separator>
  <separator name="linear response parameters" >
   <i type="logical" name="LEPSILON"> F  </i>
   <i type="logical" name="LRPA"> F  </i>
   <i type="logical" name="LNABLA"> F  </i>
   <i type="logical" name="LVEL"> F  </i>
   <i type="int" name="KINTER">     0</i>
   <i name="CSHIFT">      0.10000000</i>
   <i name="OMEGAMAX">     -1.00000000</i>
   <i name="DEG_THRESHOLD">      0.00200000</i>
  </separator>
  <separator name="orbital magnetization" >
   <i type="logical" name="NUCIND"> F  </i>
   <v name="MAGPOS">      0.00000000      0.00000000      0.00000000</v>
   <i type="logical" name="LNICSALL"> T  </i>
   <i type="logical" name="ORBITALMAG"> F  </i>
   <i type="logical" name="LMAGBLOCH"> F  </i>
   <i type="logical" name="LCHIMAG"> F  </i>
   <i type="logical" name="LGAUGE"> T  </i>
   <i type="int" name="MAGATOM">     0</i>
   <v name="MAGDIPOL">      0.00000000      0.00000000      0.00000000</v>
   <v name="AVECCONST">      0.00000000      0.00000000      0.00000000</v>
  </separator>
  <separator name="response functions" >
   <i type="logical" name="LADDER"> F  </i>
   <i type="logical" name="LFXC"> F  </i>
   <i type="logical" name="LHARTREE"> T  </i>
   <i type="int" name="IBSE">     0</i>
   <i type="logical" name="LTCTE"> F  </i>
   <i type="logical" name="LTETE"> F  </i>
   <i type="logical" name="LTRIPLET"> F  </i>
   <i type="logical" name="LFXCEPS"> F  </i>
   <i type="logical" name="LFXHEG"> F  </i>
   <i type="logical" name="L2ORDER"> F  </i>
   <i type="logical" name="LUSEW"> F  </i>
   <i name="ENCUTGW">     -2.00000000</i>
   <i name="ENCUTGWSOFT">     -2.00000000</i>
   <i name="ENCUTLF">     -1.00000000</i>
   <i type="int" name="LMAXMP2">    -1</i>
   <i name="SCISSOR">      0.00000000</i>
   <i type="int" name="NOMEGA">     0</i>
   <i type="int" name="NOMEGAR">     0</i>
   <i type="int" name="NBANDSGW">    -1</i>
   <i type="int" name="NBANDSO">    -1</i>
   <i type="int" name="NBANDSV">    -1</i>
   <i type="int" name="NELM">     1</i>
   <i type="int" name="DIM">     3</i>
   <i type="int" name="ANTIRES">     0</i>
   <i name="OMEGAMAX">    -30.00000000</i>
   <i name="OMEGAMIN">    -30.00000000</i>
   <i name="OMEGATL">   -200.00000000</i>
   <i type="int" name="OMEGAGRID">     0</i>
   <i name="CSHIFT">     -0.10000000</i>
   <i type="logical" name="SELFENERGY"> F  </i>
   <i type="logical" name="LSPECTRAL"> F  </i>
   <i type="logical" name="ODDONLYGW"> F  </i>
   <i type="logical" name="EVENONLYGW"> F  </i>
   <i type="int" name="NKREDLFX">     1</i>
   <i type="int" name="NKREDLFY">     1</i>
   <i type="int" name="NKREDLFZ">     1</i>
   <i type="int" name="MAXMEM">  1800</i>
   <i type="int" name="TELESCOPE">     0</i>
   <i type="int" name="TAUPAR">     1</i>
  </separator>
  <separator name="External order field" >
   <i name="OFIELD_KAPPA">      0.00000000</i>
   <v name="OFIELD_K">      0.00000000      0.00000000      0.00000000</v>
   <i name="OFIELD_Q6_NEAR">      0.00000000</i>
   <i name="OFIELD_Q6_FAR">      0.00000000</i>
   <i name="OFIELD_A">      0.00000000</i>
  </separator>
 </parameters>
 <atominfo>
  <atoms>       1 </atoms>
  <types>       1 </types>
  <array name="atoms" >
   <dimension dim="1">ion</dimension>
   <field type="string">element</field>
   <field type="int">atomtype</field>
   <set>
    <rc><c>Ag</c><c>   1</c></rc>
   </set>
  </array>
  <array name="atomtypes" >
   <dimension dim="1">type</dimension>
   <field type="int">atomspertype</field>
   <field type="string">element</field>
   <field>mass</field>
   <field>valence</field>
   <field type="string">pseudopotential</field>
   <set>
    <rc><c>   1</c><c>Ag</c><c>    107.86800000</c><c>     11.00000000</c><c>  PAW_PBE Ag 02Apr2005                  </c></rc>
   </set>
  </array>
 </atominfo>
 <structure name="initialpos" >
  <crystal>
   <varray name="basis" >
    <v>       3.06559074       0.00000000       0.00000000 </v>
    <v>       1.53279537       2.65487946       0.00000000 </v>
    <v>       1.53279537       0.88495982       2.50304436 </v>
   </varray>
   <i name="volume">     20.37171203 </i>
   <varray name="rec_basis" >
    <v>       0.32620140      -0.18833247      -0.13317117 </v>
    <v>       0.00000000       0.37666494      -0.13317117 </v>
    <v>       0.00000000       0.00000000       0.39951350 </v>
   </varray>
  </crystal>
  <varray name="positions" >
   <v>       0.00000000       0.00000000       0.00000000 </v>
  </varray>
 </structure>
 <calculation>
  <scstep>
   <time name="dav">    0.91    0.91</time>
   <time name="total">    0.95    0.95</time>
   <energy>
    <i name="alphaZ">     41.75290067 </i>
    <i name="ewald">   -921.31586517 </i>
    <i name="hartreedc">   -230.42095430 </i>
    <i name="XCdc">    -10.85277003 </i>
    <i name="pawpsdc">   1003.46214933 </i>
    <i name="pawaedc">   -957.34927423 </i>
    <i name="eentropy">      0.00018384 </i>
    <i name="bandstr">     66.34701666 </i>
    <i name="atom">   1037.24027811 </i>
    <i name="e_fr_energy">     28.86366488 </i>
    <i name="e_wo_entrp">     28.86348104 </i>
    <i name="e_0_energy">     28.86360360 </i>
   </energy>
  </scstep>
  <scstep>
   <time name="dav">    0.85    0.85</time>
   <time name="total">    0.86    0.86</time>
   <energy>
    <i name="e_fr_energy">     -2.61782722 </i>
    <i name="e_wo_entrp">     -2.61704870 </i>
    <i name="e_0_energy">     -2.61756771 </i>
   </energy>
  </scstep>
  <scstep>
   <time name="dav">    0.93    0.93</time>
   <time name="total">    0.94    0.95</time>
   <energy>
    <i name="e_fr_energy">     -2.83652562 </i>
    <i name="e_wo_entrp">     -2.83571726 </i>
    <i name="e_0_energy">     -2.83625617 </i>
   </energy>
  </scstep>
  <scstep>
   <time name="dav">    0.81    0.81</time>
   <time name="total">    0.82    0.83</time>
   <energy>
    <i name="e_fr_energy">     -2.83696214 </i>
    <i name="e_wo_entrp">     -2.83615326 </i>
    <i name="e_0_energy">     -2.83669251 </i>
   </energy>
  </scstep>
  <scstep>
   <time name="dav">    0.69    0.69</time>
   <time name="total">    0.76    0.77</time>
   <energy>
    <i name="e_fr_energy">     -2.83696538 </i>
    <i name="e_wo_entrp">     -2.83615649 </i>
    <i name="e_0_energy">     -2.83669575 </i>
   </energy>
  </scstep>
  <scstep>
   <time name="dav">    0.70    0.70</time>
   <time name="total">    0.80    0.81</time>
   <energy>
    <i name="e_fr_energy">     -2.64965063 </i>
    <i name="e_wo_entrp">     -2.64985195 </i>
    <i name="e_0_energy">     -2.64971774 </i>
   </energy>
  </scstep>
  <scstep>
   <time name="dav">    0.83    0.84</time>
   <time name="total">    0.94    1.02</time>
   <energy>
    <i name="e_fr_energy">     -2.64656307 </i>
    <i name="e_wo_entrp">     -2.64679685 </i>
    <i name="e_0_energy">     -2.64664099 </i>
   </energy>
  </scstep>
  <scstep>
   <time name="dav">    0.90    0.90</time>
   <time name="total">    1.01    1.06</time>
   <energy>
    <i name="e_fr_energy">     -2.64510508 </i>
    <i name="e_wo_entrp">     -2.64535281 </i>
    <i name="e_0_energy">     -2.64518766 </i>
   </energy>
  </scstep>
  <scstep>
   <time name="dav">    0.62    0.63</time>
   <time name="total">    0.67    0.71</time>
   <energy>
    <i name="alphaZ">     41.75290067 </i>
    <i name="ewald">   -921.31586517 </i>
    <i name="hartreedc">   -219.28684624 </i>
    <i name="XCdc">    -11.27109156 </i>
    <i name="pawpsdc">   1063.91894001 </i>
    <i name="pawaedc">  -1019.53353035 </i>
    <i name="eentropy">      0.00024674 </i>
    <i name="bandstr">     25.84984581 </i>
    <i name="atom">   1037.24027811 </i>
    <i name="e_fr_energy">     -2.64512198 </i>
    <i name="e_wo_entrp">     -2.64536871 </i>
    <i name="e_0_energy">     -2.64520422 </i>
   </energy>
  </scstep>
  <structure>
   <crystal>
    <varray name="basis" >
     <v>       3.06559074       0.00000000       0.00000000 </v>
     <v>       1.53279537       2.65487946       0.00000000 </v>
     <v>       1.53279537       0.88495982       2.50304436 </v>
    </varray>
    <i name="volume">     20.37171203 </i>
    <varray name="rec_basis" >
     <v>       0.32620140      -0.18833247      -0.13317117 </v>
     <v>       0.00000000       0.37666494      -0.13317117 </v>
     <v>       0.00000000       0.00000000       0.39951350 </v>
    </varray>
   </crystal>
   <varray name="positions" >
    <v>       0.00000000       0.00000000       0.00000000 </v>
   </varray>
  </structure>
  <varray name="forces" >
   <v>       0.00000000       0.00000000       0.00000000 </v>
  </varray>
  <varray name="stress" >
   <v>     -89.41778086       0.00000000       0.00000000 </v>
   <v>       0.00000000     -89.41778086       0.00000000 </v>
   <v>       0.00000000       0.00000000     -89.41778086 </v>
  </varray>
  <energy>
   <i name="e_fr_energy">     -2.64512198 </i>
   <i name="e_wo_entrp">     -2.64520422 </i>
   <i name="e_0_energy">      0.00024674 </i>
  </energy>
  <time name="totalsc">    8.40    8.69</time>
  <eigenvalues>
   <array>
    <dimension dim="1">band</dimension>
    <dimension dim="2">kpoint</dimension>
    <dimension dim="3">spin</dimension>
    <field>eigene</field>
    <field>occ</field>
    <set>
     <set comment="spin 1">
      <set comment="kpoint 1">
       <r>   -0.2562    1.0000 </r>
       <r>    1.9374    1.0000 </r>
       <r>    1.9812    1.0000 </r>
       <r>    1.9812    1.0000 </r>
       <r>    2.6991    1.0000 </r>
       <r>    2.6991    1.0000 </r>
       <r>   21.6580    0.0000 </r>
       <r>   23.2652    0.0000 </r>
       <r>   24.2342    0.0000 </r>
      </set>
      <set comment="kpoint 2">
       <r>    0.2707    1.0000 </r>
       <r>    1.8476    1.0000 </r>
       <r>    2.0885    1.0000 </r>
       <r>    2.1122    1.0000 </r>
       <r>    2.6076    1.0000 </r>
       <r>    2.7672    1.0000 </r>
       <r>   19.9141    0.0000 </r>
       <r>   21.5130    0.0000 </r>
       <r>   23.5612    0.0000 </r>
      </set>
      <set comment="kpoint 3">
       <r>    0.9421    1.0000 </r>
       <r>    2.0562    1.0000 </r>
       <r>    2.1312    1.0000 </r>
       <r>    2.3393    1.0000 </r>
       <r>    2.7387    1.0000 </r>
       <r>    3.1484    1.0000 </r>
       <r>   15.3702    0.0000 </r>
       <r>   20.9254    0.0000 </r>
       <r>   22.9429    0.0000 </r>
      </set>
      <set comment="kpoint 4">
       <r>    0.8977    1.0000 </r>
       <r>    1.9686    1.0000 </r>
       <r>    2.0211    1.0000 </r>
       <r>    3.0547    1.0000 </r>
       <r>    3.1026    1.0000 </r>
       <r>    4.8472    1.0000 </r>
       <r>   11.1474    0.0000 </r>
       <r>   20.5813    0.0000 </r>
       <r>   21.8332    0.0000 </r>
      </set>
      <set comment="kpoint 5">
       <r>    0.8471    1.0000 </r>
       <r>    1.9171    1.0000 </r>
       <r>    1.9908    1.0000 </r>
       <r>    3.1312    1.0000 </r>
       <r>    3.2927    1.0000 </r>
       <r>    6.3656    0.0202 </r>
       <r>    9.0857    0.0000 </r>
       <r>   20.7339    0.0000 </r>
       <r>   21.6849    0.0000 </r>
      </set>
      <set comment="kpoint 6">
       <r>    0.9308    1.0000 </r>
       <r>    1.9942    1.0000 </r>
       <r>    2.0727    1.0000 </r>
       <r>    2.7737    1.0000 </r>
       <r>    3.1570    1.0000 </r>
       <r>    4.0506    1.0000 </r>
       <r>   12.4741    0.0000 </r>
       <r>   21.2641    0.0000 </r>
       <r>   21.7152    0.0000 </r>
      </set>
      <set comment="kpoint 7">
       <r>    0.8096    1.0000 </r>
       <r>    1.9480    1.0000 </r>
       <r>    2.1548    1.0000 </r>
       <r>    2.1557    1.0000 </r>
       <r>    2.7567    1.0000 </r>
       <r>    2.8671    1.0000 </r>
       <r>   16.8839    0.0000 </r>
       <r>   21.9267    0.0000 </r>
       <r>   22.3368    0.0000 </r>
      </set>
      <set comment="kpoint 8">
       <r>    0.0181    1.0000 </r>
       <r>    1.8603    1.0000 </r>
       <r>    2.0610    1.0000 </r>
       <r>    2.0624    1.0000 </r>
       <r>    2.6203    1.0000 </r>
       <r>    2.7450    1.0000 </r>
       <r>   21.1949    0.0000 </r>
       <r>   22.3516    0.0000 </r>
       <r>   23.2158    0.0000 </r>
      </set>
      <set comment="kpoint 9">
       <r>    0.5207    1.0000 </r>
       <r>    1.7059    1.0000 </r>
       <r>    2.2072    1.0000 </r>
       <r>    2.2182    1.0000 </r>
       <r>    2.5443    1.0000 </r>
       <r>    2.8303    1.0000 </r>
       <r>   20.1480    0.0000 </r>
       <r>   21.7138    0.0000 </r>
       <r>   21.8678    0.0000 </r>
      </set>
      <set comment="kpoint 10">
       <r>    1.1839    1.0000 </r>
       <r>    1.6045    1.0000 </r>
       <r>    2.1285    1.0000 </r>
       <r>    2.4099    1.0000 </r>
       <r>    2.7992    1.0000 </r>
       <r>    3.2388    1.0000 </r>
       <r>   17.2915    0.0000 </r>
       <r>   19.1630    0.0000 </r>
       <r>   22.0053    0.0000 </r>
      </set>
      <set comment="kpoint 11">
       <r>    1.1763    1.0000 </r>
       <r>    1.8791    1.0000 </r>
       <r>    2.1541    1.0000 </r>
       <r>    2.3722    1.0000 </r>
       <r>    3.1692    1.0000 </r>
       <r>    4.8995    1.0000 </r>
       <r>   12.8949    0.0000 </r>
       <r>   18.7628    0.0000 </r>
       <r>   19.9422    0.0000 </r>
      </set>
      <set comment="kpoint 12">
       <r>    1.1133    1.0000 </r>
       <r>    1.7689    1.0000 </r>
       <r>    2.2306    1.0000 </r>
       <r>    2.5889    1.0000 </r>
       <r>    3.2658    1.0000 </r>
       <r>    7.4283    0.0000 </r>
       <r>    9.3305    0.0000 </r>
       <r>   18.3909    0.0000 </r>
       <r>   19.2069    0.0000 </r>
      </set>
      <set comment="kpoint 13">
       <r>    1.1938    1.0000 </r>
       <r>    1.8284    1.0000 </r>
       <r>    2.2307    1.0000 </r>
       <r>    2.4808    1.0000 </r>
       <r>    3.0670    1.0000 </r>
       <r>    5.7575    1.0029 </r>
       <r>   11.5904    0.0000 </r>
       <r>   17.6639    0.0000 </r>
       <r>   20.4819    0.0000 </r>
      </set>
      <set comment="kpoint 14">
       <r>    1.3343    1.0000 </r>
       <r>    1.7632    1.0000 </r>
       <r>    2.0607    1.0000 </r>
       <r>    2.3957    1.0000 </r>
       <r>    2.6651    1.0000 </r>
       <r>    3.8020    1.0000 </r>
       <r>   15.8111    0.0000 </r>
       <r>   17.7919    0.0000 </r>
       <r>   22.3423    0.0000 </r>
      </set>
      <set comment="kpoint 15">
       <r>    0.7218    1.0000 </r>
       <r>    1.7475    1.0000 </r>
       <r>    2.1715    1.0000 </r>
       <r>    2.2149    1.0000 </r>
       <r>    2.5856    1.0000 </r>
       <r>    2.9164    1.0000 </r>
       <r>   18.5638    0.0000 </r>
       <r>   20.3752    0.0000 </r>
       <r>   23.2784    0.0000 </r>
      </set>
      <set comment="kpoint 16">
       <r>    1.2142    1.0000 </r>
       <r>    1.3091    1.0000 </r>
       <r>    2.5921    1.0000 </r>
       <r>    2.6922    1.0000 </r>
       <r>    3.0715    1.0000 </r>
       <r>    3.5070    1.0000 </r>
       <r>   17.6678    0.0000 </r>
       <r>   18.6828    0.0000 </r>
       <r>   19.2902    0.0000 </r>
      </set>
      <set comment="kpoint 17">
       <r>    1.1588    1.0000 </r>
       <r>    1.2774    1.0000 </r>
       <r>    2.5240    1.0000 </r>
       <r>    2.9112    1.0000 </r>
       <r>    3.1992    1.0000 </r>
       <r>    5.2788    1.0000 </r>
       <r>   15.1189    0.0000 </r>
       <r>   16.7024    0.0000 </r>
       <r>   17.0848    0.0000 </r>
      </set>
      <set comment="kpoint 18">
       <r>    1.1802    1.0000 </r>
       <r>    1.5211    1.0000 </r>
       <r>    2.3286    1.0000 </r>
       <r>    2.7293    1.0000 </r>
       <r>    3.3040    1.0000 </r>
       <r>    7.9910    0.0000 </r>
       <r>   11.2858    0.0000 </r>
       <r>   14.8994    0.0000 </r>
       <r>   17.2853    0.0000 </r>
      </set>
      <set comment="kpoint 19">
       <r>    1.3972    1.0000 </r>
       <r>    1.7746    1.0000 </r>
       <r>    2.0454    1.0000 </r>
       <r>    2.6024    1.0000 </r>
       <r>    3.0787    1.0000 </r>
       <r>    8.0868    0.0000 </r>
       <r>   11.4334    0.0000 </r>
       <r>   13.7250    0.0000 </r>
       <r>   18.5728    0.0000 </r>
      </set>
      <set comment="kpoint 20">
       <r>    1.5058    1.0000 </r>
       <r>    1.7638    1.0000 </r>
       <r>    2.0258    1.0000 </r>
       <r>    2.5129    1.0000 </r>
       <r>    2.8394    1.0000 </r>
       <r>    5.6239    1.0001 </r>
       <r>   13.4209    0.0000 </r>
       <r>   15.4730    0.0000 </r>
       <r>   20.4074    0.0000 </r>
      </set>
      <set comment="kpoint 21">
       <r>    1.0767    1.0000 </r>
       <r>    2.0025    1.0000 </r>
       <r>    2.1694    1.0000 </r>
       <r>    2.3336    1.0000 </r>
       <r>    2.9580    1.0000 </r>
       <r>    3.8067    1.0000 </r>
       <r>   14.0378    0.0000 </r>
       <r>   19.8094    0.0000 </r>
       <r>   22.0616    0.0000 </r>
      </set>
      <set comment="kpoint 22">
       <r>    0.9212    1.0000 </r>
       <r>    0.9792    1.0000 </r>
       <r>    3.1353    1.0000 </r>
       <r>    3.1845    1.0000 </r>
       <r>    3.3238    1.0000 </r>
       <r>    6.3364    0.0726 </r>
       <r>   13.9916    0.0000 </r>
       <r>   15.8533    0.0000 </r>
       <r>   16.6034    0.0000 </r>
      </set>
      <set comment="kpoint 23">
       <r>    0.9365    1.0000 </r>
       <r>    1.0347    1.0000 </r>
       <r>    2.9833    1.0000 </r>
       <r>    3.1314    1.0000 </r>
       <r>    3.4060    1.0000 </r>
       <r>    8.3805    0.0000 </r>
       <r>   12.1149    0.0000 </r>
       <r>   14.2041    0.0000 </r>
       <r>   15.8263    0.0000 </r>
      </set>
      <set comment="kpoint 24">
       <r>    1.1394    1.0000 </r>
       <r>    1.4447    1.0000 </r>
       <r>    2.4326    1.0000 </r>
       <r>    2.8468    1.0000 </r>
       <r>    3.2862    1.0000 </r>
       <r>    9.7217    0.0000 </r>
       <r>   10.9145    0.0000 </r>
       <r>   12.7717    0.0000 </r>
       <r>   16.9586    0.0000 </r>
      </set>
      <set comment="kpoint 25">
       <r>    1.2952    1.0000 </r>
       <r>    1.6958    1.0000 </r>
       <r>    2.3128    1.0000 </r>
       <r>    2.4250    1.0000 </r>
       <r>    3.1932    1.0000 </r>
       <r>    8.2209    0.0000 </r>
       <r>    9.6878    0.0000 </r>
       <r>   15.9919    0.0000 </r>
       <r>   18.7849    0.0000 </r>
      </set>
      <set comment="kpoint 26">
       <r>    0.9654    1.0000 </r>
       <r>    1.8796    1.0000 </r>
       <r>    2.0853    1.0000 </r>
       <r>    2.8515    1.0000 </r>
       <r>    3.2390    1.0000 </r>
       <r>    6.0350    1.0097 </r>
       <r>   10.0753    0.0000 </r>
       <r>   19.8220    0.0000 </r>
       <r>   20.6751    0.0000 </r>
      </set>
      <set comment="kpoint 27">
       <r>    0.8250    1.0000 </r>
       <r>    0.9038    1.0000 </r>
       <r>    3.2240    1.0000 </r>
       <r>    3.3337    1.0000 </r>
       <r>    3.4146    1.0000 </r>
       <r>    7.8221    0.0000 </r>
       <r>   12.0398    0.0000 </r>
       <r>   15.4149    0.0000 </r>
       <r>   16.1443    0.0000 </r>
      </set>
      <set comment="kpoint 28">
       <r>    1.0241    1.0000 </r>
       <r>    1.1150    1.0000 </r>
       <r>    2.7896    1.0000 </r>
       <r>    3.0952    1.0000 </r>
       <r>    3.3167    1.0000 </r>
       <r>    6.8420    0.0000 </r>
       <r>   13.9279    0.0000 </r>
       <r>   14.7742    0.0000 </r>
       <r>   16.2341    0.0000 </r>
      </set>
      <set comment="kpoint 29">
       <r>    1.2091    1.0000 </r>
       <r>    1.6808    1.0000 </r>
       <r>    2.2041    1.0000 </r>
       <r>    2.5483    1.0000 </r>
       <r>    3.2784    1.0000 </r>
       <r>    6.3211    0.1086 </r>
       <r>   11.9630    0.0000 </r>
       <r>   17.3501    0.0000 </r>
       <r>   17.9308    0.0000 </r>
      </set>
      <set comment="kpoint 30">
       <r>    1.0783    1.0000 </r>
       <r>    1.1248    1.0000 </r>
       <r>    2.9215    1.0000 </r>
       <r>    2.9451    1.0000 </r>
       <r>    3.2005    1.0000 </r>
       <r>    4.7722    1.0000 </r>
       <r>   16.3692    0.0000 </r>
       <r>   16.7970    0.0000 </r>
       <r>   17.4748    0.0000 </r>
      </set>
      <set comment="kpoint 31">
       <r>    1.2858    1.0000 </r>
       <r>    1.4665    1.0000 </r>
       <r>    2.2435    1.0000 </r>
       <r>    2.6550    1.0000 </r>
       <r>    3.0400    1.0000 </r>
       <r>    4.0171    1.0000 </r>
       <r>   16.1346    0.0000 </r>
       <r>   17.9734    0.0000 </r>
       <r>   19.4628    0.0000 </r>
      </set>
      <set comment="kpoint 32">
       <r>    1.0584    1.0000 </r>
       <r>    1.5100    1.0000 </r>
       <r>    2.3189    1.0000 </r>
       <r>    2.4362    1.0000 </r>
       <r>    2.7662    1.0000 </r>
       <r>    2.9438    1.0000 </r>
       <r>   18.9011    0.0000 </r>
       <r>   20.1354    0.0000 </r>
       <r>   21.4519    0.0000 </r>
      </set>
      <set comment="kpoint 33">
       <r>    0.4756    1.0000 </r>
       <r>    1.9307    1.0000 </r>
       <r>    2.1020    1.0000 </r>
       <r>    2.1020    1.0000 </r>
       <r>    2.7073    1.0000 </r>
       <r>    2.7073    1.0000 </r>
       <r>   18.3391    0.0000 </r>
       <r>   22.3108    0.0000 </r>
       <r>   23.9600    0.0000 </r>
      </set>
      <set comment="kpoint 34">
       <r>    1.0474    1.0000 </r>
       <r>    1.7751    1.0000 </r>
       <r>    2.1805    1.0000 </r>
       <r>    2.2604    1.0000 </r>
       <r>    2.5245    1.0000 </r>
       <r>    3.2354    1.0000 </r>
       <r>   17.1074    0.0000 </r>
       <r>   19.0310    0.0000 </r>
       <r>   23.8455    0.0000 </r>
      </set>
      <set comment="kpoint 35">
       <r>    1.4337    1.0000 </r>
       <r>    1.8081    1.0000 </r>
       <r>    2.1725    1.0000 </r>
       <r>    2.3568    1.0000 </r>
       <r>    2.6498    1.0000 </r>
       <r>    4.5730    1.0000 </r>
       <r>   14.5183    0.0000 </r>
       <r>   16.5403    0.0000 </r>
       <r>   22.5712    0.0000 </r>
      </set>
      <set comment="kpoint 36">
       <r>    1.2296    1.0000 </r>
       <r>    1.7796    1.0000 </r>
       <r>    2.2817    1.0000 </r>
       <r>    2.4864    1.0000 </r>
       <r>    3.0857    1.0000 </r>
       <r>    6.8708    0.0000 </r>
       <r>   10.5113    0.0000 </r>
       <r>   16.7167    0.0000 </r>
       <r>   20.9328    0.0000 </r>
      </set>
      <set comment="kpoint 37">
       <r>    1.1391    1.0000 </r>
       <r>    1.7664    1.0000 </r>
       <r>    2.3248    1.0000 </r>
       <r>    2.4019    1.0000 </r>
       <r>    3.3141    1.0000 </r>
       <r>    6.8311   -0.0001 </r>
       <r>   10.4371    0.0000 </r>
       <r>   17.7870    0.0000 </r>
       <r>   19.5663    0.0000 </r>
      </set>
      <set comment="kpoint 38">
       <r>    1.1958    1.0000 </r>
       <r>    1.7205    1.0000 </r>
       <r>    2.1760    1.0000 </r>
       <r>    2.4319    1.0000 </r>
       <r>    3.2023    1.0000 </r>
       <r>    4.3006    1.0000 </r>
       <r>   14.4197    0.0000 </r>
       <r>   19.3459    0.0000 </r>
       <r>   19.6130    0.0000 </r>
      </set>
      <set comment="kpoint 39">
       <r>    1.1034    1.0000 </r>
       <r>    1.9111    1.0000 </r>
       <r>    2.0747    1.0000 </r>
       <r>    2.2661    1.0000 </r>
       <r>    3.0445    1.0000 </r>
       <r>    3.2956    1.0000 </r>
       <r>   15.5728    0.0000 </r>
       <r>   20.7463    0.0000 </r>
       <r>   21.4021    0.0000 </r>
      </set>
      <set comment="kpoint 40">
       <r>    1.4089    1.0000 </r>
       <r>    1.7381    1.0000 </r>
       <r>    1.9296    1.0000 </r>
       <r>    2.6148    1.0000 </r>
       <r>    2.9144    1.0000 </r>
       <r>    4.7347    1.0000 </r>
       <r>   14.6871    0.0000 </r>
       <r>   16.6864    0.0000 </r>
       <r>   19.8279    0.0000 </r>
      </set>
      <set comment="kpoint 41">
       <r>    1.5618    1.0000 </r>
       <r>    1.6303    1.0000 </r>
       <r>    1.9144    1.0000 </r>
       <r>    2.6785    1.0000 </r>
       <r>    3.0664    1.0000 </r>
       <r>    6.9789    0.0000 </r>
       <r>   12.5268    0.0000 </r>
       <r>   14.6254    0.0000 </r>
       <r>   17.8602    0.0000 </r>
      </set>
      <set comment="kpoint 42">
       <r>    1.3915    1.0000 </r>
       <r>    1.6002    1.0000 </r>
       <r>    2.1112    1.0000 </r>
       <r>    2.6153    1.0000 </r>
       <r>    3.2572    1.0000 </r>
       <r>    8.8805    0.0000 </r>
       <r>   10.0572    0.0000 </r>
       <r>   15.4213    0.0000 </r>
       <r>   16.5204    0.0000 </r>
      </set>
      <set comment="kpoint 43">
       <r>    1.3316    1.0000 </r>
       <r>    1.5169    1.0000 </r>
       <r>    2.1096    1.0000 </r>
       <r>    2.8316    1.0000 </r>
       <r>    3.1153    1.0000 </r>
       <r>    6.0455    0.9992 </r>
       <r>   13.7548    0.0000 </r>
       <r>   15.7394    0.0000 </r>
       <r>   17.2778    0.0000 </r>
      </set>
      <set comment="kpoint 44">
       <r>    1.1407    1.0000 </r>
       <r>    1.4785    1.0000 </r>
       <r>    2.4293    1.0000 </r>
       <r>    2.6359    1.0000 </r>
       <r>    3.3105    1.0000 </r>
       <r>    5.6583    1.0003 </r>
       <r>   13.4533    0.0000 </r>
       <r>   17.0064    0.0000 </r>
       <r>   18.2195    0.0000 </r>
      </set>
      <set comment="kpoint 45">
       <r>    1.2225    1.0000 </r>
       <r>    1.3455    1.0000 </r>
       <r>    2.3311    1.0000 </r>
       <r>    2.9405    1.0000 </r>
       <r>    3.2859    1.0000 </r>
       <r>    7.6422    0.0000 </r>
       <r>   13.0310    0.0000 </r>
       <r>   14.5397    0.0000 </r>
       <r>   15.4125    0.0000 </r>
      </set>
      <set comment="kpoint 46">
       <r>    1.3409    1.0000 </r>
       <r>    1.5883    1.0000 </r>
       <r>    2.0108    1.0000 </r>
       <r>    2.7613    1.0000 </r>
       <r>    3.4025    1.0000 </r>
       <r>   10.3685    0.0000 </r>
       <r>   11.4937    0.0000 </r>
       <r>   12.8520    0.0000 </r>
       <r>   14.1709    0.0000 </r>
      </set>
      <set comment="kpoint 47">
       <r>    1.4451    1.0000 </r>
       <r>    1.5938    1.0000 </r>
       <r>    1.9452    1.0000 </r>
       <r>    2.7553    1.0000 </r>
       <r>    3.2716    1.0000 </r>
       <r>    8.6045    0.0000 </r>
       <r>   11.8697    0.0000 </r>
       <r>   13.9630    0.0000 </r>
       <r>   15.5042    0.0000 </r>
      </set>
      <set comment="kpoint 48">
       <r>    0.9866    1.0000 </r>
       <r>    1.2042    1.0000 </r>
       <r>    2.8143    1.0000 </r>
       <r>    3.0011    1.0000 </r>
       <r>    3.3327    1.0000 </r>
       <r>    8.8788    0.0000 </r>
       <r>   11.9800    0.0000 </r>
       <r>   12.8609    0.0000 </r>
       <r>   17.0201    0.0000 </r>
      </set>
      <set comment="kpoint 49">
       <r>    1.1383    1.0000 </r>
       <r>    1.2722    1.0000 </r>
       <r>    2.4990    1.0000 </r>
       <r>    2.9372    1.0000 </r>
       <r>    3.4033    1.0000 </r>
       <r>    9.2922    0.0000 </r>
       <r>   12.1760    0.0000 </r>
       <r>   13.0833    0.0000 </r>
       <r>   14.9384    0.0000 </r>
      </set>
      <set comment="kpoint 50">
       <r>    1.0504    1.0000 </r>
       <r>    1.2956    1.0000 </r>
       <r>    2.6701    1.0000 </r>
       <r>    2.8447    1.0000 </r>
       <r>    3.3507    1.0000 </r>
       <r>    7.2700    0.0000 </r>
       <r>   12.7072    0.0000 </r>
       <r>   14.5621    0.0000 </r>
       <r>   17.4286    0.0000 </r>
      </set>
      <set comment="kpoint 51">
       <r>    0.8962    1.0000 </r>
       <r>    2.0619    1.0000 </r>
       <r>    2.0619    1.0000 </r>
       <r>    2.9652    1.0000 </r>
       <r>    2.9652    1.0000 </r>
       <r>    3.0625    1.0000 </r>
       <r>   13.8194    0.0000 </r>
       <r>   21.6904    0.0000 </r>
       <r>   23.1725    0.0000 </r>
      </set>
      <set comment="kpoint 52">
       <r>    1.1101    1.0000 </r>
       <r>    1.9388    1.0000 </r>
       <r>    2.1617    1.0000 </r>
       <r>    2.5829    1.0000 </r>
       <r>    2.8881    1.0000 </r>
       <r>    4.6238    1.0000 </r>
       <r>   12.7085    0.0000 </r>
       <r>   18.6522    0.0000 </r>
       <r>   22.1716    0.0000 </r>
      </set>
      <set comment="kpoint 53">
       <r>    1.4545    1.0000 </r>
       <r>    1.8040    1.0000 </r>
       <r>    2.1236    1.0000 </r>
       <r>    2.4703    1.0000 </r>
       <r>    2.9096    1.0000 </r>
       <r>    6.7289   -0.0008 </r>
       <r>   12.3373    0.0000 </r>
       <r>   14.4687    0.0000 </r>
       <r>   20.7618    0.0000 </r>
      </set>
      <set comment="kpoint 54">
       <r>    1.2245    1.0000 </r>
       <r>    1.6664    1.0000 </r>
       <r>    2.2607    1.0000 </r>
       <r>    2.7054    1.0000 </r>
       <r>    3.1550    1.0000 </r>
       <r>    9.4002    0.0000 </r>
       <r>   10.4765    0.0000 </r>
       <r>   13.1064    0.0000 </r>
       <r>   18.6222    0.0000 </r>
      </set>
      <set comment="kpoint 55">
       <r>    1.0258    1.0000 </r>
       <r>    1.8878    1.0000 </r>
       <r>    2.1646    1.0000 </r>
       <r>    2.5649    1.0000 </r>
       <r>    3.2804    1.0000 </r>
       <r>    5.3169    1.0000 </r>
       <r>   11.3414    0.0000 </r>
       <r>   20.1698    0.0000 </r>
       <r>   20.4995    0.0000 </r>
      </set>
      <set comment="kpoint 56">
       <r>    1.3096    1.0000 </r>
       <r>    1.6846    1.0000 </r>
       <r>    2.2261    1.0000 </r>
       <r>    2.4746    1.0000 </r>
       <r>    3.2021    1.0000 </r>
       <r>    7.1914    0.0000 </r>
       <r>   10.6951    0.0000 </r>
       <r>   16.8564    0.0000 </r>
       <r>   18.0519    0.0000 </r>
      </set>
      <set comment="kpoint 57">
       <r>    1.3667    1.0000 </r>
       <r>    1.6512    1.0000 </r>
       <r>    2.0231    1.0000 </r>
       <r>    2.7122    1.0000 </r>
       <r>    3.2702    1.0000 </r>
       <r>    9.6960    0.0000 </r>
       <r>   10.7517    0.0000 </r>
       <r>   13.2365    0.0000 </r>
       <r>   16.2053    0.0000 </r>
      </set>
      <set comment="kpoint 58">
       <r>    1.2121    1.0000 </r>
       <r>    1.6844    1.0000 </r>
       <r>    2.3029    1.0000 </r>
       <r>    2.5258    1.0000 </r>
       <r>    3.2578    1.0000 </r>
       <r>    8.5560    0.0000 </r>
       <r>    9.8067    0.0000 </r>
       <r>   15.3340    0.0000 </r>
       <r>   18.9376    0.0000 </r>
      </set>
      <set comment="kpoint 59">
       <r>    0.8105    1.0000 </r>
       <r>    1.9618    1.0000 </r>
       <r>    1.9618    1.0000 </r>
       <r>    3.2467    1.0000 </r>
       <r>    3.2467    1.0000 </r>
       <r>    5.4592    1.0000 </r>
       <r>    9.8961    0.0000 </r>
       <r>   21.0453    0.0000 </r>
       <r>   22.3658    0.0000 </r>
      </set>
      <set comment="kpoint 60">
       <r>    0.9957    1.0000 </r>
       <r>    1.8449    1.0000 </r>
       <r>    2.1040    1.0000 </r>
       <r>    2.8475    1.0000 </r>
       <r>    3.2333    1.0000 </r>
       <r>    6.9466    0.0000 </r>
       <r>    9.2083    0.0000 </r>
       <r>   19.0068    0.0000 </r>
       <r>   21.2763    0.0000 </r>
      </set>
     </set>
    </set>
   </array>
  </eigenvalues>
  <separator name="orbital magnetization" >
   <v name="MAGDIPOLOUT">      0.00000000      0.00000000      0.00000000</v>
  </separator>
  <dos>
   <i name="efermi">      6.21309967 </i>
   <total>
    <array>
     <dimension dim="1">gridpoints</dimension>
     <dimension dim="2">spin</dimension>
     <field>energy</field>
     <field>total</field>
     <field>integrated</field>
     <set>
      <set comment="spin 1">
       <r>    -2.2562     0.0000     0.0000 </r>
       <r>    -2.1612     0.0000     0.0000 </r>
       <r>    -2.0663     0.0000     0.0000 </r>
       <r>    -1.9713     0.0000     0.0000 </r>
       <r>    -1.8763     0.0000     0.0000 </r>
       <r>    -1.7814     0.0000     0.0000 </r>
       <r>    -1.6864     0.0000     0.0000 </r>
       <r>    -1.5914     0.0000     0.0000 </r>
       <r>    -1.4965     0.0000     0.0000 </r>
       <r>    -1.4015     0.0000     0.0000 </r>
       <r>    -1.3065     0.0000     0.0000 </r>
       <r>    -1.2116     0.0000     0.0000 </r>
       <r>    -1.1166     0.0000     0.0000 </r>
       <r>    -1.0216     0.0000     0.0000 </r>
       <r>    -0.9266     0.0000     0.0000 </r>
       <r>    -0.8317     0.0000     0.0000 </r>
       <r>    -0.7367    -0.0001     0.0000 </r>
       <r>    -0.6417    -0.0007    -0.0001 </r>
       <r>    -0.5468    -0.0017    -0.0002 </r>
       <r>    -0.4518     0.0001    -0.0002 </r>
       <r>    -0.3568     0.0100     0.0007 </r>
       <r>    -0.2619     0.0235     0.0030 </r>
       <r>    -0.1669     0.0330     0.0061 </r>
       <r>    -0.0719     0.0539     0.0112 </r>
       <r>     0.0230     0.0860     0.0194 </r>
       <r>     0.1180     0.0955     0.0285 </r>
       <r>     0.2130     0.0911     0.0371 </r>
       <r>     0.3079     0.0958     0.0462 </r>
       <r>     0.4029     0.0990     0.0556 </r>
       <r>     0.4979     0.1003     0.0651 </r>
       <r>     0.5928     0.1056     0.0752 </r>
       <r>     0.6878     0.1764     0.0919 </r>
       <r>     0.7828     0.4507     0.1347 </r>
       <r>     0.8777     1.0454     0.2340 </r>
       <r>     0.9727     1.9779     0.4218 </r>
       <r>     1.0677     3.1246     0.7186 </r>
       <r>     1.1626     4.1286     1.1107 </r>
       <r>     1.2576     4.4975     1.5378 </r>
       <r>     1.3526     4.1448     1.9314 </r>
       <r>     1.4475     3.5050     2.2642 </r>
       <r>     1.5425     3.0787     2.5566 </r>
       <r>     1.6375     3.1123     2.8522 </r>
       <r>     1.7325     3.4018     3.1753 </r>
       <r>     1.8274     3.5564     3.5130 </r>
       <r>     1.9224     3.6876     3.8632 </r>
       <r>     2.0174     4.2084     4.2629 </r>
       <r>     2.1123     4.9078     4.7289 </r>
       <r>     2.2073     5.0706     5.2105 </r>
       <r>     2.3023     4.5386     5.6415 </r>
       <r>     2.3972     3.9475     6.0164 </r>
       <r>     2.4922     3.8120     6.3784 </r>
       <r>     2.5872     4.0110     6.7593 </r>
       <r>     2.6821     4.2048     7.1586 </r>
       <r>     2.7771     4.2508     7.5623 </r>
       <r>     2.8721     4.1038     7.9521 </r>
       <r>     2.9670     3.7872     8.3117 </r>
       <r>     3.0620     3.7293     8.6659 </r>
       <r>     3.1570     4.3651     9.0804 </r>
       <r>     3.2519     5.0846     9.5633 </r>
       <r>     3.3469     4.5758     9.9979 </r>
       <r>     3.4419     2.7200    10.2562 </r>
       <r>     3.5368     0.8880    10.3405 </r>
       <r>     3.6318     0.0614    10.3463 </r>
       <r>     3.7268     0.0678    10.3528 </r>
       <r>     3.8217     0.3080    10.3820 </r>
       <r>     3.9167     0.4003    10.4200 </r>
       <r>     4.0117     0.3594    10.4542 </r>
       <r>     4.1067     0.2747    10.4802 </r>
       <r>     4.2016     0.1639    10.4958 </r>
       <r>     4.2966     0.0909    10.5045 </r>
       <r>     4.3916     0.0653    10.5107 </r>
       <r>     4.4865     0.0796    10.5182 </r>
       <r>     4.5815     0.1780    10.5351 </r>
       <r>     4.6765     0.3396    10.5674 </r>
       <r>     4.7714     0.4738    10.6124 </r>
       <r>     4.8664     0.4859    10.6585 </r>
       <r>     4.9614     0.3355    10.6904 </r>
       <r>     5.0563     0.1293    10.7026 </r>
       <r>     5.1513     0.0638    10.7087 </r>
       <r>     5.2463     0.1768    10.7255 </r>
       <r>     5.3412     0.2684    10.7510 </r>
       <r>     5.4362     0.2150    10.7714 </r>
       <r>     5.5312     0.1835    10.7888 </r>
       <r>     5.6261     0.2979    10.8171 </r>
       <r>     5.7211     0.3890    10.8541 </r>
       <r>     5.8161     0.3120    10.8837 </r>
       <r>     5.9110     0.2245    10.9050 </r>
       <r>     6.0060     0.2900    10.9326 </r>
       <r>     6.1010     0.3526    10.9661 </r>
       <r>     6.1959     0.3048    10.9950 </r>
       <r>     6.2909     0.3169    11.0251 </r>
       <r>     6.3859     0.3557    11.0589 </r>
       <r>     6.4809     0.2300    11.0807 </r>
       <r>     6.5758     0.0543    11.0859 </r>
       <r>     6.6708     0.0593    11.0915 </r>
       <r>     6.7658     0.2740    11.1175 </r>
       <r>     6.8607     0.5256    11.1674 </r>
       <r>     6.9557     0.5845    11.2229 </r>
       <r>     7.0507     0.4316    11.2639 </r>
       <r>     7.1456     0.2894    11.2914 </r>
       <r>     7.2406     0.2707    11.3171 </r>
       <r>     7.3356     0.2776    11.3435 </r>
       <r>     7.4305     0.2543    11.3676 </r>
       <r>     7.5255     0.2277    11.3893 </r>
       <r>     7.6205     0.2189    11.4100 </r>
       <r>     7.7154     0.2057    11.4296 </r>
       <r>     7.8104     0.1745    11.4462 </r>
       <r>     7.9054     0.1950    11.4647 </r>
       <r>     8.0003     0.2986    11.4930 </r>
       <r>     8.0953     0.3886    11.5299 </r>
       <r>     8.1903     0.3845    11.5665 </r>
       <r>     8.2852     0.3278    11.5976 </r>
       <r>     8.3802     0.2826    11.6244 </r>
       <r>     8.4752     0.2746    11.6505 </r>
       <r>     8.5701     0.2919    11.6782 </r>
       <r>     8.6651     0.2667    11.7035 </r>
       <r>     8.7601     0.2175    11.7242 </r>
       <r>     8.8550     0.2453    11.7475 </r>
       <r>     8.9500     0.2718    11.7733 </r>
       <r>     9.0450     0.2121    11.7935 </r>
       <r>     9.1400     0.2054    11.8130 </r>
       <r>     9.2349     0.3511    11.8463 </r>
       <r>     9.3299     0.4885    11.8927 </r>
       <r>     9.4249     0.4025    11.9309 </r>
       <r>     9.5198     0.2217    11.9520 </r>
       <r>     9.6148     0.2889    11.9794 </r>
       <r>     9.7098     0.5456    12.0312 </r>
       <r>     9.8047     0.5771    12.0860 </r>
       <r>     9.8997     0.3684    12.1210 </r>
       <r>     9.9947     0.2864    12.1482 </r>
       <r>    10.0896     0.3460    12.1811 </r>
       <r>    10.1846     0.2918    12.2088 </r>
       <r>    10.2796     0.2009    12.2279 </r>
       <r>    10.3745     0.2753    12.2540 </r>
       <r>    10.4695     0.3866    12.2907 </r>
       <r>    10.5645     0.3737    12.3262 </r>
       <r>    10.6594     0.3527    12.3597 </r>
       <r>    10.7544     0.3964    12.3974 </r>
       <r>    10.8494     0.3832    12.4338 </r>
       <r>    10.9443     0.2765    12.4600 </r>
       <r>    11.0393     0.1602    12.4752 </r>
       <r>    11.1343     0.1281    12.4874 </r>
       <r>    11.2292     0.2211    12.5084 </r>
       <r>    11.3242     0.3826    12.5447 </r>
       <r>    11.4192     0.5199    12.5941 </r>
       <r>    11.5142     0.5508    12.6464 </r>
       <r>    11.6091     0.4208    12.6864 </r>
       <r>    11.7041     0.2165    12.7070 </r>
       <r>    11.7991     0.1593    12.7221 </r>
       <r>    11.8940     0.3274    12.7532 </r>
       <r>    11.9890     0.5391    12.8044 </r>
       <r>    12.0840     0.6122    12.8625 </r>
       <r>    12.1789     0.5222    12.9121 </r>
       <r>    12.2739     0.3433    12.9447 </r>
       <r>    12.3689     0.2221    12.9658 </r>
       <r>    12.4638     0.2357    12.9882 </r>
       <r>    12.5588     0.2925    13.0159 </r>
       <r>    12.6538     0.3560    13.0498 </r>
       <r>    12.7487     0.5121    13.0984 </r>
       <r>    12.8437     0.6872    13.1637 </r>
       <r>    12.9387     0.7159    13.2316 </r>
       <r>    13.0336     0.6404    13.2925 </r>
       <r>    13.1286     0.5500    13.3447 </r>
       <r>    13.2236     0.4271    13.3852 </r>
       <r>    13.3185     0.3250    13.4161 </r>
       <r>    13.4135     0.2967    13.4443 </r>
       <r>    13.5085     0.2536    13.4684 </r>
       <r>    13.6034     0.1997    13.4873 </r>
       <r>    13.6984     0.2751    13.5135 </r>
       <r>    13.7934     0.4346    13.5547 </r>
       <r>    13.8883     0.5663    13.6085 </r>
       <r>    13.9833     0.6686    13.6720 </r>
       <r>    14.0783     0.6787    13.7365 </r>
       <r>    14.1733     0.5636    13.7900 </r>
       <r>    14.2682     0.3821    13.8263 </r>
       <r>    14.3632     0.2662    13.8516 </r>
       <r>    14.4582     0.3826    13.8879 </r>
       <r>    14.5531     0.6358    13.9483 </r>
       <r>    14.6481     0.7446    14.0190 </r>
       <r>    14.7431     0.6571    14.0814 </r>
       <r>    14.8380     0.5468    14.1333 </r>
       <r>    14.9330     0.4846    14.1794 </r>
       <r>    15.0280     0.3885    14.2162 </r>
       <r>    15.1229     0.2504    14.2400 </r>
       <r>    15.2179     0.1939    14.2584 </r>
       <r>    15.3129     0.3944    14.2959 </r>
       <r>    15.4078     0.7972    14.3716 </r>
       <r>    15.5028     0.9553    14.4623 </r>
       <r>    15.5978     0.6912    14.5280 </r>
       <r>    15.6927     0.4578    14.5715 </r>
       <r>    15.7877     0.5329    14.6221 </r>
       <r>    15.8827     0.6094    14.6799 </r>
       <r>    15.9776     0.5061    14.7280 </r>
       <r>    16.0726     0.4728    14.7729 </r>
       <r>    16.1676     0.5984    14.8297 </r>
       <r>    16.2625     0.6125    14.8879 </r>
       <r>    16.3575     0.4210    14.9279 </r>
       <r>    16.4525     0.2990    14.9563 </r>
       <r>    16.5475     0.4120    14.9954 </r>
       <r>    16.6424     0.6187    15.0542 </r>
       <r>    16.7374     0.7344    15.1239 </r>
       <r>    16.8324     0.7275    15.1930 </r>
       <r>    16.9273     0.6964    15.2591 </r>
       <r>    17.0223     0.6701    15.3228 </r>
       <r>    17.1173     0.6167    15.3813 </r>
       <r>    17.2122     0.6491    15.4430 </r>
       <r>    17.3072     0.7891    15.5179 </r>
       <r>    17.4022     0.7506    15.5892 </r>
       <r>    17.4971     0.4728    15.6341 </r>
       <r>    17.5921     0.2920    15.6618 </r>
       <r>    17.6871     0.3821    15.6981 </r>
       <r>    17.7820     0.5931    15.7545 </r>
       <r>    17.8770     0.7464    15.8253 </r>
       <r>    17.9720     0.7473    15.8963 </r>
       <r>    18.0669     0.5669    15.9502 </r>
       <r>    18.1619     0.3163    15.9802 </r>
       <r>    18.2569     0.1771    15.9970 </r>
       <r>    18.3518     0.1965    16.0157 </r>
       <r>    18.4468     0.3173    16.0458 </r>
       <r>    18.5418     0.5157    16.0948 </r>
       <r>    18.6367     0.7085    16.1621 </r>
       <r>    18.7317     0.7512    16.2334 </r>
       <r>    18.8267     0.6383    16.2940 </r>
       <r>    18.9216     0.4888    16.3404 </r>
       <r>    19.0166     0.4096    16.3793 </r>
       <r>    19.1116     0.4320    16.4204 </r>
       <r>    19.2066     0.4918    16.4671 </r>
       <r>    19.3015     0.4771    16.5124 </r>
       <r>    19.3965     0.3957    16.5500 </r>
       <r>    19.4915     0.3345    16.5817 </r>
       <r>    19.5864     0.2908    16.6094 </r>
       <r>    19.6814     0.3120    16.6390 </r>
       <r>    19.7764     0.5162    16.6880 </r>
       <r>    19.8713     0.7351    16.7578 </r>
       <r>    19.9663     0.6655    16.8210 </r>
       <r>    20.0613     0.4224    16.8611 </r>
       <r>    20.1562     0.2879    16.8885 </r>
       <r>    20.2512     0.2862    16.9157 </r>
       <r>    20.3462     0.4020    16.9538 </r>
       <r>    20.4411     0.5801    17.0089 </r>
       <r>    20.5361     0.6321    17.0690 </r>
       <r>    20.6311     0.5710    17.1232 </r>
       <r>    20.7260     0.5301    17.1735 </r>
       <r>    20.8210     0.4613    17.2173 </r>
       <r>    20.9160     0.3313    17.2488 </r>
       <r>    21.0109     0.2103    17.2688 </r>
       <r>    21.1059     0.1572    17.2837 </r>
       <r>    21.2009     0.2106    17.3037 </r>
       <r>    21.2958     0.3051    17.3327 </r>
       <r>    21.3908     0.3366    17.3646 </r>
       <r>    21.4858     0.3081    17.3939 </r>
       <r>    21.5808     0.2958    17.4220 </r>
       <r>    21.6757     0.3562    17.4558 </r>
       <r>    21.7707     0.4307    17.4967 </r>
       <r>    21.8657     0.4588    17.5403 </r>
       <r>    21.9606     0.4878    17.5866 </r>
       <r>    22.0556     0.4916    17.6333 </r>
       <r>    22.1506     0.4138    17.6726 </r>
       <r>    22.2455     0.3784    17.7085 </r>
       <r>    22.3405     0.4461    17.7509 </r>
       <r>    22.4355     0.4204    17.7908 </r>
       <r>    22.5304     0.2503    17.8146 </r>
       <r>    22.6254     0.1043    17.8245 </r>
       <r>    22.7204     0.0363    17.8279 </r>
       <r>    22.8153     0.0242    17.8302 </r>
       <r>    22.9103     0.0555    17.8355 </r>
       <r>    23.0053     0.0821    17.8433 </r>
       <r>    23.1002     0.1186    17.8546 </r>
       <r>    23.1952     0.2317    17.8766 </r>
       <r>    23.2902     0.3243    17.9074 </r>
       <r>    23.3851     0.2565    17.9317 </r>
       <r>    23.4801     0.1293    17.9440 </r>
       <r>    23.5751     0.0805    17.9517 </r>
       <r>    23.6700     0.0731    17.9586 </r>
       <r>    23.7650     0.0767    17.9659 </r>
       <r>    23.8600     0.1032    17.9757 </r>
       <r>    23.9549     0.1046    17.9856 </r>
       <r>    24.0499     0.0620    17.9915 </r>
       <r>    24.1449     0.0286    17.9942 </r>
       <r>    24.2399     0.0265    17.9967 </r>
       <r>    24.3348     0.0252    17.9991 </r>
       <r>    24.4298     0.0113    18.0002 </r>
       <r>    24.5248     0.0004    18.0002 </r>
       <r>    24.6197    -0.0016    18.0001 </r>
       <r>    24.7147    -0.0007    18.0000 </r>
       <r>    24.8097    -0.0001    18.0000 </r>
       <r>    24.9046     0.0000    18.0000 </r>
       <r>    24.9996     0.0000    18.0000 </r>
       <r>    25.0946     0.0000    18.0000 </r>
       <r>    25.1895     0.0000    18.0000 </r>
       <r>    25.2845     0.0000    18.0000 </r>
       <r>    25.3795     0.0000    18.0000 </r>
       <r>    25.4744     0.0000    18.0000 </r>
       <r>    25.5694     0.0000    18.0000 </r>
       <r>    25.6644     0.0000    18.0000 </r>
       <r>    25.7593     0.0000    18.0000 </r>
       <r>    25.8543     0.0000    18.0000 </r>
       <r>    25.9493     0.0000    18.0000 </r>
       <r>    26.0442     0.0000    18.0000 </r>
       <r>    26.1392     0.0000    18.0000 </r>
       <r>    26.2342     0.0000    18.0000 </r>
      </set>
     </set>
    </array>
   </total>
  </dos>
 </calculation>
 <structure name="finalpos" >
  <crystal>
   <varray name="basis" >
    <v>       3.06559074       0.00000000       0.00000000 </v>
    <v>       1.53279537       2.65487946       0.00000000 </v>
    <v>       1.53279537       0.88495982       2.50304436 </v>
   </varray>
   <i name="volume">     20.37171203 </i>
   <varray name="rec_basis" >
    <v>       0.32620140      -0.18833247      -0.13317117 </v>
    <v>       0.00000000       0.37666494      -0.13317117 </v>
    <v>       0.00000000       0.00000000       0.39951350 </v>
   </varray>
  </crystal>
  <varray name="positions" >
   <v>       0.00000000       0.00000000       0.00000000 </v>
  </varray>
 </structure>
</modeling>
