 vasp.5.3.5 31Mar14 (build Jan 09 2015 16:57:47) complex                        
  
 POSCAR found :  1 types and       1 ions
 LDA part: xc-table for Pade appr. of Perdew
 POSCAR found :  1 types and       1 ions
 POSCAR, INCAR and KPOINTS ok, starting setup
 WARNING: small aliasing (wrap around) errors must be expected
 FFT: planning ...
 WAVECAR not read
 entering main loop
       N       E                     dE             d eps       ncg     rms          rms(c)
DAV:   1     0.288636648761E+02    0.28864E+02   -0.44598E+03  1240   0.760E+02
DAV:   2    -0.261782721693E+01   -0.31481E+02   -0.30092E+02  1108   0.159E+02
DAV:   3    -0.283652561772E+01   -0.21870E+00   -0.21865E+00  1278   0.159E+01
DAV:   4    -0.283696214207E+01   -0.43652E-03   -0.43652E-03  1227   0.682E-01
DAV:   5    -0.283696538037E+01   -0.32383E-05   -0.32379E-05  1022   0.552E-02    0.335E+00
DAV:   6    -0.264965063491E+01    0.18731E+00   -0.10189E+00  1113   0.106E+01    0.240E+00
DAV:   7    -0.264656306519E+01    0.30876E-02   -0.25621E-03  1150   0.541E-01    0.140E+00
DAV:   8    -0.264510508436E+01    0.14580E-02   -0.70625E-04  1105   0.293E-01    0.352E-02
DAV:   9    -0.264512197687E+01   -0.16893E-04   -0.10941E-05   583   0.343E-02
   1 F= -.26451220E+01 E0= -.26452042E+01  d E =-.264512E+01
 curvature:   0.00 expect dE= 0.000E+00 dE for cont linesearch  0.000E+00
 trial: gam= 0.00000 g(F)=  0.230E-61 g(S)=  0.000E+00 ort = 0.000E+00 (trialstep = 0.100E+01)
 search vector abs. value=  0.100E-09
 reached required accuracy - stopping structural energy minimisation
 writing wavefunctions
