unknown system                          
           1
     3.065591    0.000000    0.000000
     1.532795    2.654879    0.000000
     1.532795    0.884960    2.503044
   Ag
   1
Direct configuration=     1
   0.00000000  0.00000000  0.00000000
