unknown system                          
   1.00000000000000     
     2.695632    0.000000    0.000000
     1.347816    2.334486    0.000000
     1.347816    0.778162    2.200975
   Pd
     1
Direct
  0.000000  0.000000  0.000000
 
   24   24   24
  86.654      83.207      74.025      61.762      48.918      36.900      26.313      17.653      11.418      7.6725    
  5.7520      4.7439      4.4221      4.7439      5.7520      7.6725      11.418      17.653      26.313      36.900    
  48.918      61.762      74.025      83.207      83.207      76.908      66.280      53.934      41.764      30.679    
  21.202      13.890      9.0819      6.4600      5.0976      4.4550      4.4570      5.0997      6.4584      9.0798    
  13.891      21.204      30.678      41.762      53.935      66.282      76.908      83.207      74.026      66.282    
  55.755      44.455      33.627      23.965      16.081      10.489      7.1901      5.4754      4.5503      4.2560    
  4.5503      5.4754      7.1901      10.489      16.081      23.965      33.627      44.455      55.755      66.282    
  74.026      76.908      61.762      53.936      44.457      34.670      25.472      17.586      11.636      7.8554    
  5.8120      4.6749      4.1441      4.1422      4.6728      5.8136      7.8573      11.635      17.584      25.474    
  34.672      44.456      53.934      61.762      66.281      66.281      48.916      41.764      33.629      25.473    
  18.119      12.277      8.3298      6.0711      4.7896      4.0909      3.8747      4.0909      4.7896      6.0711    
  8.3298      12.277      18.119      25.473      33.629      41.764      48.916      53.935      55.756      53.935    
  36.899      30.678      23.965      17.586      12.276      8.4991      6.2145      4.8731      4.0728      3.7139    
  3.7156      4.0746      4.8717      6.2128      8.5003      12.277      17.584      23.963      30.679      36.901    
  41.763      44.456      44.457      41.764      26.314      21.202      16.081      11.636      8.3286      6.2128    
  4.9015      4.0716      3.6354      3.5021      3.6354      4.0716      4.9015      6.2128      8.3286      11.636    
  16.081      21.202      26.314      30.680      33.627      34.671      33.627      30.680      17.653      13.890    
  10.490      7.8567      6.0716      4.8718      4.0702      3.6126      3.4115      3.4104      3.6113      4.0711    
  4.8730      6.0709      7.8560      10.491      13.891      17.652      21.203      23.965      25.474      25.473    
  23.964      21.204      11.417      9.0812      7.1896      5.8128      4.7912      4.0735      3.6350      3.4110    
  3.3438      3.4110      3.6350      4.0735      4.7913      5.8128      7.1897      9.0812      11.417      13.890    
  16.081      17.585      18.120      17.585      16.081      13.891      7.6727      6.4594      5.4741      4.6739    
  4.0910      3.7148      3.5028      3.4107      3.4112      3.5035      3.7147      4.0905      4.6738      5.4740    
  6.4590      7.6728      9.0813      10.491      11.635      12.277      12.277      11.636      10.490      9.0805    
  5.7530      5.0984      4.5503      4.1432      3.8736      3.7148      3.6354      3.6117      3.6354      3.7148    
  3.8736      4.1432      4.5503      5.0984      5.7531      6.4591      7.1901      7.8565      8.3286      8.4995    
  8.3286      7.8565      7.1901      6.4591      4.7439      4.4558      4.2571      4.1431      4.0909      4.0737    
  4.0706      4.0706      4.0736      4.0906      4.1432      4.2577      4.4563      4.7436      5.0983      5.4739    
  5.8129      6.0713      6.2137      6.2136      6.0711      5.8127      5.4742      5.0990      4.4211      4.4562    
  4.5502      4.6737      4.7909      4.8725      4.9014      4.8725      4.7909      4.6737      4.5502      4.4562    
  4.4211      4.4562      4.5502      4.6737      4.7909      4.8725      4.9014      4.8725      4.7909      4.6737    
  4.5502      4.4562      4.7439      5.0990      5.4742      5.8127      6.0711      6.2136      6.2137      6.0713    
  5.8129      5.4739      5.0983      4.7436      4.4563      4.2577      4.1432      4.0906      4.0736      4.0706    
  4.0706      4.0737      4.0909      4.1431      4.2571      4.4558      5.7530      6.4591      7.1901      7.8565    
  8.3286      8.4995      8.3286      7.8565      7.1901      6.4591      5.7531      5.0984      4.5503      4.1432    
  3.8736      3.7148      3.6354      3.6117      3.6354      3.7148      3.8736      4.1432      4.5503      5.0984    
  7.6727      9.0805      10.490      11.636      12.277      12.277      11.635      10.491      9.0813      7.6728    
  6.4590      5.4740      4.6738      4.0905      3.7147      3.5035      3.4112      3.4107      3.5028      3.7148    
  4.0910      4.6739      5.4741      6.4594      11.417      13.891      16.081      17.585      18.120      17.585    
  16.081      13.890      11.417      9.0812      7.1897      5.8128      4.7913      4.0735      3.6350      3.4110    
  3.3438      3.4110      3.6350      4.0735      4.7912      5.8128      7.1896      9.0812      17.653      21.204    
  23.964      25.473      25.474      23.965      21.203      17.652      13.891      10.491      7.8560      6.0709    
  4.8730      4.0711      3.6113      3.4104      3.4115      3.6126      4.0702      4.8718      6.0716      7.8567    
  10.490      13.890      26.314      30.680      33.627      34.671      33.627      30.680      26.314      21.202    
  16.081      11.636      8.3286      6.2128      4.9015      4.0716      3.6354      3.5021      3.6354      4.0716    
  4.9015      6.2128      8.3286      11.636      16.081      21.202      36.899      41.764      44.457      44.456    
  41.763      36.901      30.679      23.963      17.584      12.277      8.5003      6.2128      4.8717      4.0746    
  3.7156      3.7139      4.0728      4.8731      6.2145      8.4991      12.276      17.586      23.965      30.678    
  48.916      53.935      55.756      53.935      48.916      41.764      33.629      25.473      18.119      12.277    
  8.3298      6.0711      4.7896      4.0909      3.8747      4.0909      4.7896      6.0711      8.3298      12.277    
  18.119      25.473      33.629      41.764      61.762      66.281      66.281      61.762      53.934      44.456    
  34.672      25.474      17.584      11.635      7.8573      5.8136      4.6728      4.1422      4.1441      4.6749    
  5.8120      7.8554      11.636      17.586      25.472      34.670      44.457      53.936      74.026      76.908    
  74.026      66.282      55.755      44.455      33.627      23.965      16.081      10.489      7.1901      5.4754    
  4.5503      4.2560      4.5503      5.4754      7.1901      10.489      16.081      23.965      33.627      44.455    
  55.755      66.282      83.207      83.207      76.908      66.282      53.935      41.762      30.678      21.204    
  13.891      9.0798      6.4584      5.0997      4.4570      4.4550      5.0976      6.4600      9.0819      13.890    
  21.202      30.679      41.764      53.934      66.280      76.908      83.207      76.908      66.280      53.934    
  41.764      30.679      21.202      13.890      9.0819      6.4600      5.0976      4.4550      4.4570      5.0997    
  6.4584      9.0798      13.891      21.204      30.678      41.762      53.935      66.282      76.908      83.207    
  76.907      68.643      57.502      45.687      34.502      24.598      16.519      10.760      7.3387      5.5676    
  4.6175      4.3141      4.6173      5.5676      7.3389      10.760      16.519      24.597      34.501      45.686    
  57.503      68.645      76.909      79.996      66.280      57.503      47.084      36.568      26.851      18.560    
  12.262      8.2080      6.0110      4.8139      4.2509      4.2490      4.8118      6.0127      8.2102      12.260    
  18.558      26.852      36.569      47.083      57.502      66.282      71.415      71.413      53.934      45.688    
  36.570      27.641      19.666      13.294      8.9183      6.3909      5.0006      4.2392      4.0021      4.2394    
  5.0006      6.3906      8.9182      13.294      19.667      27.641      36.570      45.688      53.933      59.853    
  62.028      59.854      41.763      34.502      26.853      19.668      13.660      9.3135      6.6529      5.1486    
  4.2549      3.8497      3.8515      4.2569      5.1470      6.6509      9.3151      13.662      19.667      26.851    
  34.503      41.764      47.595      50.890      50.891      47.596      30.679      24.596      18.559      13.295    
  9.3143      6.7445      5.2260      4.2766      3.7713      3.6161      3.7713      4.2767      5.2261      6.7446    
  9.3143      13.294      18.559      24.596      30.679      35.974      39.623      40.930      39.623      35.974    
  21.204      16.519      12.260      8.9177      6.6527      5.2255      4.2832      3.7391      3.4991      3.4979    
  3.7378      4.2844      5.2268      6.6517      8.9165      12.261      16.520      21.203      25.645      29.138    
  31.068      31.067      29.138      25.646      13.891      10.761      8.2082      6.3909      5.1484      4.2757    
  3.7380      3.4629      3.3804      3.4628      3.7378      4.2755      5.1484      6.3912      8.2087      10.761    
  13.891      17.184      20.098      22.108      22.825      22.108      20.099      17.184      9.0814      7.3390    
  6.0117      5.0015      4.2559      3.7715      3.4983      3.3796      3.3800      3.4988      3.7711      4.2554    
  5.0020      6.0122      7.3386      9.0810      11.123      13.161      14.813      15.738      15.739      14.813    
  13.161      11.123      6.4591      5.5666      4.8131      4.2391      3.8504      3.6172      3.4984      3.4626    
  3.4985      3.6175      3.8507      4.2390      4.8126      5.5661      6.4592      7.5102      8.6588      9.7232    
  10.481      10.755      10.481      9.7230      8.6584      7.5097      5.0984      4.6174      4.2501      4.0009    
  3.8507      3.7713      3.7384      3.7384      3.7713      3.8507      4.0009      4.2500      4.6174      5.0984    
  5.6545      6.2260      6.7725      7.2193      7.4733      7.4733      7.2193      6.7725      6.2260      5.6545    
  4.4560      4.3153      4.2497      4.2393      4.2562      4.2758      4.2837      4.2755      4.2558      4.2391    
  4.2499      4.3159      4.4564      4.6713      4.9368      5.2100      5.4430      5.5970      5.6508      5.5969    
  5.4430      5.2104      4.9373      4.6715      4.4563      4.6175      4.8126      5.0017      5.1478      5.2262    
  5.2261      5.1477      5.0018      4.8127      4.6174      4.4561      4.3581      4.3306      4.3594      4.4168    
  4.4732      4.5066      4.5065      4.4730      4.4169      4.3596      4.3305      4.3580      5.0989      5.5665    
  6.0120      6.3906      6.6517      6.7457      6.6523      6.3911      6.0119      5.5661      5.0984      4.6712    
  4.3305      4.0924      3.9463      3.8681      3.8330      3.8235      3.8333      3.8682      3.9460      4.0919    
  4.3303      4.6714      6.4592      7.3388      8.2093      8.9171      9.3144      9.3143      8.9170      8.2094    
  7.3389      6.4591      5.6545      4.9369      4.3596      3.9463      3.6823      3.5343      3.4698      3.4697    
  3.5342      3.6824      3.9464      4.3595      4.9368      5.6545      9.0810      10.761      12.261      13.294    
  13.661      13.293      12.260      10.761      9.0816      7.5103      6.2257      5.2100      4.4172      3.8682    
  3.5340      3.3629      3.3114      3.3627      3.5338      3.8684      4.4176      5.2104      6.2258      7.5099    
  13.891      16.520      18.559      19.668      19.668      18.559      16.519      13.890      11.123      8.6592    
  6.7722      5.4425      4.4734      3.8334      3.4694      3.3107      3.3114      3.4702      3.8327      4.4727    
  5.4431      6.7729      8.6586      11.123      21.203      24.597      26.852      27.641      26.852      24.597    
  21.203      17.183      13.161      9.7239      7.2193      5.5962      4.5065      3.8242      3.4698      3.3619    
  3.4698      3.8243      4.5066      5.5960      7.2188      9.7237      13.161      17.184      30.678      34.502    
  36.569      36.568      34.501      30.680      25.646      20.098      14.812      10.481      7.4740      5.6502    
  4.5058      3.8340      3.5350      3.5334      3.8323      4.5073      5.6518      7.4727      10.480      14.813    
  20.100      25.645      41.762      45.687      47.085      45.688      41.762      35.973      29.139      22.108    
  15.737      10.755      7.4744      5.5969      4.4720      3.8683      3.6835      3.8683      4.4719      5.5968    
  7.4745      10.756      15.738      22.108      29.139      35.973      53.934      57.502      57.503      53.935    
  47.595      39.622      31.068      22.826      15.737      10.480      7.2202      5.4437      4.4160      3.9452    
  3.9472      4.4181      5.4419      7.2180      10.481      15.740      22.824      31.066      39.624      47.596    
  66.281      68.642      66.281      59.854      50.890      40.930      31.067      22.109      14.813      9.7217    
  6.7726      5.2116      4.3595      4.0906      4.3596      5.2116      6.7725      9.7217      14.813      22.109    
  31.067      40.930      50.891      59.855      76.910      76.908      71.413      62.028      50.891      39.622    
  29.137      20.101      13.162      8.6575      6.2251      4.9383      4.3315      4.3294      4.9360      6.2269    
  8.6598      13.160      20.098      29.138      39.623      50.890      62.027      71.415      83.209      79.998    
  71.413      59.854      47.596      35.973      25.644      17.184      11.124      7.5099      5.6533      4.6715    
  4.3593      4.6715      5.6533      7.5099      11.124      17.184      25.644      35.973      47.596      59.854    
  71.413      79.998      74.026      66.282      55.755      44.455      33.627      23.965      16.081      10.489    
  7.1901      5.4754      4.5503      4.2560      4.5503      5.4754      7.1901      10.489      16.081      23.965    
  33.627      44.455      55.755      66.282      74.026      76.908      66.280      57.503      47.084      36.568    
  26.851      18.560      12.262      8.2080      6.0110      4.8139      4.2509      4.2490      4.8118      6.0127    
  8.2102      12.260      18.558      26.852      36.569      47.083      57.502      66.282      71.415      71.413    
  55.754      47.083      37.594      28.386      20.200      13.649      9.1274      6.5041      5.0745      4.2915    
  4.0469      4.2915      5.0745      6.5041      9.1273      13.649      20.200      28.386      37.594      47.083    
  55.754      62.028      64.342      62.028      44.456      36.568      28.387      20.773      14.406      9.7624    
  6.8951      5.2961      4.3533      3.9229      3.9247      4.3552      5.2945      6.8931      9.7636      14.407    
  20.772      28.386      36.569      44.457      50.890      54.565      54.567      50.892      33.627      26.851    
  20.201      14.407      9.9903      7.1102      5.4385      4.4123      3.8607      3.6905      3.8607      4.4123    
  5.4385      7.1102      9.9903      14.407      20.201      26.851      33.627      39.624      43.819      45.335    
  43.819      39.624      23.965      18.559      13.648      9.7638      7.1117      5.4868      4.4432      3.8337    
  3.5634      3.5620      3.8323      4.4445      5.4884      7.1107      9.7622      13.649      18.559      23.964    
  29.138      33.259      35.559      35.557      33.257      29.138      16.082      12.261      9.1256      6.8944    
  5.4392      4.4438      3.8247      3.5069      3.4115      3.5069      3.8247      4.4438      5.4392      6.8944    
  9.1255      12.261      16.082      20.099      23.674      26.156      27.046      26.156      23.674      20.099    
  10.491      8.2091      6.5038      5.2950      4.4117      3.8335      3.5065      3.3646      3.3654      3.5073    
  3.8326      4.4107      5.2957      6.5049      8.2090      10.490      13.161      15.823      17.983      19.196    
  19.197      17.984      15.823      13.161      7.1901      6.0121      5.0756      4.3537      3.8607      3.5631    
  3.4108      3.3648      3.4108      3.5631      3.8607      4.3538      5.0756      6.0122      7.1901      8.6587    
  10.287      11.801      12.879      13.270      12.879      11.801      10.288      8.6587      5.4741      4.8131    
  4.2915      3.9236      3.6915      3.5627      3.5069      3.5068      3.5627      3.6919      3.9240      4.2913    
  4.8125      5.4738      6.2261      7.0538      7.8929      8.5953      8.9983      8.9981      8.5949      7.8926    
  7.0535      6.2260      4.5503      4.2501      4.0457      3.9239      3.8607      3.8329      3.8253      3.8329    
  3.8607      3.9239      4.0457      4.2500      4.5503      4.9369      5.3722      5.7981      6.1632      6.4175    
  6.5094      6.4175      6.1632      5.7981      5.3721      4.9369      4.2572      4.2499      4.2914      4.3543    
  4.4114      4.4440      4.4437      4.4109      4.3541      4.2915      4.2500      4.2576      4.3307      4.4655    
  4.6379      4.8114      4.9492      5.0243      5.0241      4.9490      4.8119      4.6385      4.4655      4.3302    
  4.5503      4.8127      5.0756      5.2952      5.4385      5.4880      5.4385      5.2952      5.0756      4.8127    
  4.5503      4.3305      4.1792      4.0992      4.0741      4.0794      4.0923      4.0982      4.0923      4.0794    
  4.0741      4.0992      4.1792      4.3305      5.4742      6.0119      6.5042      6.8938      7.1111      7.1114    
  6.8944      6.5045      6.0119      5.4738      4.9369      4.4654      4.0990      3.8453      3.6879      3.6016    
  3.5647      3.5648      3.6018      3.6877      3.8448      4.0988      4.4656      4.9374      7.1902      8.2093    
  9.1261      9.7628      9.9904      9.7628      9.1261      8.2093      7.1902      6.2260      5.3721      4.6380    
  4.0742      3.6879      3.4522      3.3304      3.2934      3.3304      3.4522      3.6879      4.0742      4.6379    
  5.3721      6.2260      10.491      12.261      13.649      14.406      14.407      13.649      12.260      10.490    
  8.6592      7.0541      5.7979      4.8112      4.0797      3.6019      3.3302      3.2111      3.2116      3.3306    
  3.6015      4.0795      4.8120      5.7984      7.0532      8.6581      16.081      18.559      20.201      20.772    
  20.201      18.559      16.081      13.160      10.287      7.8936      6.1631      4.9485      4.0923      3.5653    
  3.2933      3.2108      3.2933      3.5653      4.0923      4.9485      6.1631      7.8936      10.288      13.160    
  23.964      26.852      28.386      28.386      26.852      23.965      20.100      15.822      11.800      8.5958    
  6.4180      5.0237      4.0975      3.5653      3.3310      3.3298      3.5641      4.0987      5.0248      6.4166    
  8.5944      11.801      15.824      20.099      33.626      36.569      37.593      36.569      33.627      29.138    
  23.675      17.983      12.878      8.9982      6.5104      5.0242      4.0913      3.6017      3.4533      3.6017    
  4.0913      5.0242      6.5104      8.9983      12.878      17.983      23.675      29.138      44.456      47.083    
  47.084      44.457      39.622      33.257      26.156      19.198      13.270      8.9974      6.4182      4.9499    
  4.0787      3.6869      3.6887      4.0805      4.9483      6.4164      8.9990      13.272      19.196      26.154    
  33.258      39.623      55.755      57.501      55.755      50.892      43.819      35.557      27.045      19.198    
  12.879      8.5938      6.1631      4.8130      4.0741      3.8437      4.0741      4.8130      6.1631      8.5938    
  12.879      19.198      27.045      35.557      43.819      50.892      66.281      66.280      62.027      54.567    
  45.337      35.557      26.155      17.985      11.802      7.8917      5.7972      4.6393      4.0999      4.0979    
  4.6371      5.7990      7.8939      11.800      17.982      26.156      35.559      45.336      54.565      62.028    
  74.027      71.414      64.340      54.566      43.820      33.258      23.673      15.823      10.289      7.0534    
  5.3710      4.4655      4.1804      4.4655      5.3710      7.0534      10.289      15.823      23.673      33.258    
  43.820      54.566      64.340      71.414      76.910      71.415      62.027      50.890      39.623      29.138    
  20.098      13.160      8.6598      6.2269      4.9360      4.3294      4.3315      4.9383      6.2251      8.6575    
  13.162      20.101      29.137      39.622      50.891      62.028      71.413      76.908      61.762      53.936    
  44.457      34.670      25.472      17.586      11.636      7.8554      5.8120      4.6749      4.1441      4.1422    
  4.6728      5.8136      7.8573      11.635      17.584      25.474      34.672      44.456      53.934      61.762    
  66.281      66.281      53.934      45.688      36.570      27.641      19.666      13.294      8.9183      6.3909    
  5.0006      4.2392      4.0021      4.2394      5.0006      6.3906      8.9182      13.294      19.667      27.641    
  36.570      45.688      53.933      59.853      62.028      59.854      44.456      36.568      28.387      20.773    
  14.406      9.7624      6.8951      5.2961      4.3533      3.9229      3.9247      4.3552      5.2945      6.8931    
  9.7636      14.407      20.772      28.386      36.569      44.457      50.890      54.565      54.567      50.892    
  34.671      27.640      20.772      14.797      10.230      7.2411      5.5123      4.4596      3.8919      3.7166    
  3.8919      4.4597      5.5122      7.2408      10.230      14.797      20.773      27.641      34.671      40.931    
  45.336      46.934      45.337      40.932      25.474      19.667      14.406      10.231      7.3670      5.6257    
  4.5287      3.8840      3.5973      3.5959      3.8826      4.5300      5.6272      7.3657      10.229      14.407    
  19.669      25.473      31.067      35.558      38.082      38.081      35.558      31.068      17.586      13.294    
  9.7625      7.2420      5.6270      4.5539      3.8818      3.5356      3.4313      3.5354      3.8818      4.5542    
  5.6272      7.2419      9.7621      13.293      17.586      22.108      26.155      28.982      30.000      28.982    
  26.154      22.108      11.636      8.9175      6.8940      5.5119      4.5297      3.8829      3.5167      3.3577    
  3.3584      3.5175      3.8822      4.5289      5.5125      6.8946      8.9167      11.635      14.813      17.984    
  20.565      22.020      22.021      20.566      17.983      14.812      7.8562      6.3912      5.2953      4.4583    
  3.8834      3.5359      3.3580      3.3043      3.3581      3.5359      3.8832      4.4580      5.2953      6.3914    
  7.8565      9.7228      11.801      13.734      15.113      15.614      15.114      13.735      11.801      9.7226    
  5.8127      5.0019      4.3541      3.8917      3.5965      3.4308      3.3582      3.3580      3.4306      3.5967    
  3.8919      4.3539      5.0017      5.8129      6.7727      7.8930      9.0538      10.033      10.596      10.595    
  10.032      9.0539      7.8932      6.7725      4.6741      4.2392      3.9237      3.7175      3.5964      3.5354    
  3.5171      3.5355      3.5966      3.7178      3.9239      4.2392      4.6736      5.2099      5.7981      6.3889    
  6.9286      7.3173      7.4596      7.3170      6.9282      6.3885      5.7982      5.2104      4.1433      4.0010    
  3.9239      3.8918      3.8832      3.8826      3.8825      3.8831      3.8919      3.9240      4.0009      4.1432    
  4.3596      4.6380      4.9447      5.2323      5.4535      5.5734      5.5733      5.4534      5.2324      4.9448    
  4.6379      4.3595      4.1430      4.2394      4.3544      4.4586      4.5294      4.5543      4.5293      4.4582    
  4.3540      4.2393      4.1432      4.0922      4.0991      4.1574      4.2448      4.3328      4.3962      4.4192    
  4.3963      4.3331      4.2452      4.1575      4.0988      4.0917      4.6736      5.0018      5.2953      5.5121    
  5.6265      5.6266      5.5122      5.2952      5.0017      4.6737      4.3596      4.0990      3.9119      3.7958    
  3.7339      3.7058      3.6959      3.6960      3.7059      3.7338      3.7957      3.9120      4.0992      4.3595    
  5.8128      6.3907      6.8938      7.2417      7.3662      7.2419      6.8943      6.3911      5.8127      5.2099    
  4.6379      4.1573      3.7957      3.5502      3.4002      3.3216      3.2975      3.3215      3.4000      3.5500    
  3.7955      4.1573      4.6384      5.2104      7.8566      8.9172      9.7628      10.230      10.230      9.7629    
  8.9170      7.8564      6.7726      5.7982      4.9446      4.2447      3.7339      3.4002      3.2083      3.1229    
  3.1230      3.2085      3.4001      3.7338      4.2448      4.9448      5.7980      6.7724      11.635      13.294    
  14.407      14.796      14.406      13.294      11.635      9.7228      7.8931      6.3892      5.2323      4.3325    
  3.7059      3.3220      3.1230      3.0623      3.1229      3.3220      3.7061      4.3328      5.2324      6.3889    
  7.8926      9.7226      17.585      19.668      20.773      20.773      19.668      17.585      14.813      11.800    
  9.0535      6.9290      5.4538      4.3958      3.6955      3.2979      3.1233      3.1226      3.2971      3.6963    
  4.3966      5.4531      6.9282      9.0542      11.801      14.813      25.472      27.641      28.387      27.642    
  25.473      22.108      17.984      13.734      10.032      7.3173      5.5741      4.4191      3.6951      3.3215    
  3.2091      3.3217      3.6951      4.4188      5.5738      7.3172      10.032      13.734      17.985      22.108    
  34.671      36.568      36.569      34.672      31.067      26.155      20.566      15.114      10.595      7.4589    
  5.5741      4.3970      3.7052      3.3993      3.4008      3.7068      4.3956      5.5724      7.4602      10.596    
  15.113      20.565      26.156      31.068      44.457      45.687      44.456      40.931      35.558      28.981    
  22.021      15.616      10.596      7.3159      5.4535      4.3343      3.7339      3.5489      3.7338      4.3342    
  5.4535      7.3161      10.596      15.615      22.020      28.981      35.558      40.932      53.935      53.934    
  50.889      45.337      38.082      29.999      22.020      15.114      10.033      6.9274      5.2314      4.2459    
  3.7966      3.7947      4.2439      5.2332      6.9295      10.032      15.112      22.021      30.000      38.080    
  45.335      50.891      61.762      59.853      54.564      46.934      38.082      28.982      20.564      13.734    
  9.0550      6.3885      4.9434      4.1573      3.9131      4.1573      4.9434      6.3885      9.0550      13.734    
  20.564      28.982      38.082      46.934      54.564      59.853      66.281      62.028      54.565      45.336    
  35.559      26.156      17.982      11.800      7.8939      5.7990      4.6371      4.0979      4.0999      4.6393    
  5.7972      7.8917      11.802      17.985      26.155      35.557      45.337      54.567      62.027      66.280    
  66.281      59.855      50.891      40.930      31.067      22.109      14.813      9.7217      6.7725      5.2116    
  4.3596      4.0906      4.3595      5.2116      6.7726      9.7217      14.813      22.109      31.067      40.930    
  50.890      59.854      66.281      68.642      48.916      41.764      33.629      25.473      18.119      12.277    
  8.3298      6.0711      4.7896      4.0909      3.8747      4.0909      4.7896      6.0711      8.3298      12.277    
  18.119      25.473      33.629      41.764      48.916      53.935      55.756      53.935      41.763      34.502    
  26.853      19.668      13.660      9.3135      6.6529      5.1486      4.2549      3.8497      3.8515      4.2569    
  5.1470      6.6509      9.3151      13.662      19.667      26.851      34.503      41.764      47.595      50.890    
  50.891      47.596      33.627      26.851      20.201      14.407      9.9903      7.1102      5.4385      4.4123    
  3.8607      3.6905      3.8607      4.4123      5.4385      7.1102      9.9903      14.407      20.201      26.851    
  33.627      39.624      43.819      45.335      43.819      39.624      25.474      19.667      14.406      10.231    
  7.3670      5.6257      4.5287      3.8840      3.5973      3.5959      3.8826      4.5300      5.6272      7.3657    
  10.229      14.407      19.669      25.473      31.067      35.558      38.082      38.081      35.558      31.068    
  18.121      13.661      9.9896      7.3663      5.6925      4.5924      3.9017      3.5453      3.4381      3.5453    
  3.9016      4.5924      5.6925      7.3663      9.9896      13.661      18.121      22.825      27.045      30.000    
  31.065      29.999      27.045      22.825      12.277      9.3147      7.1108      5.6260      4.5928      3.9100    
  3.5228      3.3546      3.3555      3.5236      3.9092      4.5921      5.6269      7.1118      9.3139      12.276    
  15.739      19.197      22.020      23.614      23.614      22.020      19.197      15.738      8.3286      6.6525    