unknown system                          
   1.00000000000000     
     2.695632    0.000000    0.000000
     1.347816    2.334486    0.000000
     1.347816    0.778162    2.200975
   Pd
     1
Direct
  0.000000  0.000000  0.000000
 
   24   24   24
 0.86654161601E+02 0.83206537365E+02 0.74024657978E+02 0.61762419140E+02 0.48918499950E+02
 0.36899664187E+02 0.26313147606E+02 0.17652653052E+02 0.11417646230E+02 0.76725455609E+01
 0.57520061839E+01 0.47438671218E+01 0.44220861641E+01 0.47438671218E+01 0.57520061839E+01
 0.76725455609E+01 0.11417646230E+02 0.17652653052E+02 0.26313147606E+02 0.36899664187E+02
 0.48918499950E+02 0.61762419140E+02 0.74024657978E+02 0.83206537365E+02 0.83207292295E+02
 0.76908050829E+02 0.66279974889E+02 0.53934437550E+02 0.41764443544E+02 0.30679444471E+02
 0.21202406568E+02 0.13889859298E+02 0.90819461144E+01 0.64599853450E+01 0.50976030278E+01
 0.44550484349E+01 0.44569978751E+01 0.50997486122E+01 0.64583594217E+01 0.90798445364E+01
 0.13891268240E+02 0.21204324611E+02 0.30677878024E+02 0.41762070597E+02 0.53935311950E+02
 0.66282151058E+02 0.76908064683E+02 0.83206581290E+02 0.74025700115E+02 0.66281857251E+02
 0.55754854013E+02 0.44455483352E+02 0.33627443217E+02 0.23965455477E+02 0.16081224102E+02
 0.10489165044E+02 0.71900734053E+01 0.54753583131E+01 0.45502962535E+01 0.42559823687E+01
 0.45503093588E+01 0.54753664499E+01 0.71900621188E+01 0.10489141306E+02 0.16081210409E+02
 0.23965461299E+02 0.33627449167E+02 0.44455451278E+02 0.55754765684E+02 0.66281740913E+02
 0.74025616699E+02 0.76907692182E+02 0.61761585117E+02 0.53936026504E+02 0.44457444807E+02
 0.34670099258E+02 0.25472270271E+02 0.17586091466E+02 0.11636089821E+02 0.78553521907E+01
 0.58119623960E+01 0.46748952511E+01 0.41440652134E+01 0.41421691095E+01 0.46728352433E+01
 0.58135708186E+01 0.78573295291E+01 0.11634637521E+02 0.17584326450E+02 0.25473974906E+02
 0.34672303640E+02 0.44456210436E+02 0.53933735243E+02 0.61761805671E+02 0.66281447504E+02
 0.66280562104E+02 0.48916281430E+02 0.41763688614E+02 0.33628619599E+02 0.25473104294E+02
 0.18118847185E+02 0.12276888363E+02 0.83298229768E+01 0.60710975180E+01 0.47896355157E+01
 0.40908577646E+01 0.38747415459E+01 0.40908672212E+01 0.47896450485E+01 0.60710975881E+01
 0.83298138595E+01 0.12276880546E+02 0.18118853252E+02 0.25473129381E+02 0.33628655960E+02
 0.41763724722E+02 0.48916307836E+02 0.53934569266E+02 0.55755942066E+02 0.53934557020E+02
 0.36898895374E+02 0.30677920728E+02 0.23965096858E+02 0.17586026256E+02 0.12276119551E+02
 0.84990822402E+01 0.62144879295E+01 0.48730889089E+01 0.40727505965E+01 0.37138977261E+01
 0.37155632449E+01 0.40745600830E+01 0.48717039151E+01 0.62128071619E+01 0.85003144361E+01
 0.12277445750E+02 0.17584371977E+02 0.23963395822E+02 0.30679436522E+02 0.36900949172E+02
 0.41762955909E+02 0.44456275647E+02 0.44457347522E+02 0.41763594340E+02 0.26314189743E+02
 0.21202250349E+02 0.16081224102E+02 0.11636166947E+02 0.83286465945E+01 0.62128079672E+01
 0.49014688949E+01 0.40716063661E+01 0.36353834450E+01 0.35020762313E+01 0.36353736578E+01
 0.40715970251E+01 0.49014675971E+01 0.62128080500E+01 0.83286320665E+01 0.11636131295E+02
 0.16081178603E+02 0.21202223929E+02 0.26314198752E+02 0.30679578859E+02 0.33627479578E+02
 0.34670558468E+02 0.33627449167E+02 0.30679544104E+02 0.17653131054E+02 0.13890136227E+02
 0.10489814473E+02 0.78566642158E+01 0.60715755201E+01 0.48718420942E+01 0.40702172145E+01
 0.36125554182E+01 0.34114973783E+01 0.34103598054E+01 0.36112780120E+01 0.40710618674E+01
 0.48729601046E+01 0.60709121083E+01 0.78560232527E+01 0.10490969015E+02 0.13890961699E+02
 0.17651725082E+02 0.21202657076E+02 0.23964642637E+02 0.25473607383E+02 0.25472662881E+02
 0.23963855865E+02 0.21204047682E+02 0.11417029681E+02 0.90811911838E+01 0.71896478169E+01
 0.58127964191E+01 0.47912374864E+01 0.40735194092E+01 0.36349578567E+01 0.34110193762E+01
 0.33438387152E+01 0.34110148598E+01 0.36349552474E+01 0.40735268250E+01 0.47912561288E+01
 0.58128228897E+01 0.71896672618E+01 0.90811964485E+01 0.11417015534E+02 0.13890483697E+02
 0.16080753014E+02 0.17585140789E+02 0.18120455223E+02 0.17585160473E+02 0.16080784821E+02
 0.13890513310E+02 0.76726885064E+01 0.64593733598E+01 0.54740879360E+01 0.46739182825E+01
 0.40910007101E+01 0.37148094843E+01 0.35028444354E+01 0.34106948620E+01 0.34111578053E+01
 0.35034581461E+01 0.37146533339E+01 0.40905262835E+01 0.46738099360E+01 0.54739976707E+01
 0.64590237389E+01 0.76728152277E+01 0.90813393940E+01 0.10490633959E+02 0.11635077200E+02
 0.12276533992E+02 0.12277023491E+02 0.11635614490E+02 0.10490125792E+02 0.90804565215E+01
 0.57530483212E+01 0.50983918405E+01 0.45502962535E+01 0.41431973082E+01 0.38735651635E+01
 0.37148283142E+01 0.36353736578E+01 0.36117221320E+01 0.36353808357E+01 0.37148301615E+01
 0.38735507223E+01 0.41431759254E+01 0.45502878805E+01 0.50984139363E+01 0.57530993293E+01
 0.64591328024E+01 0.71900928502E+01 0.78565351368E+01 0.83286320665E+01 0.84995117414E+01
 0.83286374771E+01 0.78565293881E+01 0.71900621188E+01 0.64590804703E+01 0.47439149301E+01
 0.44557555572E+01 0.42570619920E+01 0.41430509409E+01 0.40909150294E+01 0.40737434620E+01
 0.40706380672E+01 0.40706316736E+01 0.40735746332E+01 0.40906214207E+01 0.41431619992E+01
 0.42577392529E+01 0.44562516174E+01 0.47435878072E+01 0.50983322460E+01 0.54739025335E+01
 0.58128706980E+01 0.60713423021E+01 0.62136713913E+01 0.62136237829E+01 0.60711453964E+01
 0.58126889873E+01 0.54741912100E+01 0.50990414899E+01 0.44211451789E+01 0.44562429444E+01
 0.45502082067E+01 0.46736692664E+01 0.47909225829E+01 0.48724727278E+01 0.49013664450E+01
 0.48724821026E+01 0.47909316926E+01 0.46736669905E+01 0.45501867284E+01 0.44562038091E+01
 0.44210991914E+01 0.44562038091E+01 0.45501867284E+01 0.46736669905E+01 0.47909316926E+01
 0.48724821026E+01 0.49013664450E+01 0.48724727278E+01 0.47909225829E+01 0.46736692664E+01
 0.45502082067E+01 0.44562429444E+01 0.47439149301E+01 0.50990414899E+01 0.54741912100E+01
 0.58126889873E+01 0.60711453964E+01 0.62136237829E+01 0.62136713913E+01 0.60713423021E+01
 0.58128706980E+01 0.54739025335E+01 0.50983322460E+01 0.47435878072E+01 0.44562516174E+01
 0.42577392529E+01 0.41431619992E+01 0.40906214207E+01 0.40735746332E+01 0.40706316736E+01
 0.40706380672E+01 0.40737434620E+01 0.40909150294E+01 0.41430509409E+01 0.42570619920E+01
 0.44557555572E+01 0.57530483212E+01 0.64590804703E+01 0.71900621188E+01 0.78565293881E+01
 0.83286374771E+01 0.84995117414E+01 0.83286320665E+01 0.78565351368E+01 0.71900928502E+01
 0.64591328024E+01 0.57530993293E+01 0.50984139363E+01 0.45502878805E+01 0.41431759254E+01
 0.38735507223E+01 0.37148301615E+01 0.36353808357E+01 0.36117221320E+01 0.36353736578E+01
 0.37148283142E+01 0.38735651635E+01 0.41431973082E+01 0.45502962535E+01 0.50983918405E+01
 0.76726885064E+01 0.90804565215E+01 0.10490125792E+02 0.11635614490E+02 0.12277023491E+02
 0.12276533992E+02 0.11635077200E+02 0.10490633959E+02 0.90813393940E+01 0.76728152277E+01
 0.64590237389E+01 0.54739976707E+01 0.46738099360E+01 0.40905262835E+01 0.37146533339E+01
 0.35034581461E+01 0.34111578053E+01 0.34106948620E+01 0.35028444354E+01 0.37148094843E+01
 0.40910007101E+01 0.46739182825E+01 0.54740879360E+01 0.64593733598E+01 0.11417029681E+02
 0.13890513310E+02 0.16080784821E+02 0.17585160473E+02 0.18120455223E+02 0.17585140789E+02
 0.16080753014E+02 0.13890483697E+02 0.11417015534E+02 0.90811964485E+01 0.71896672618E+01
 0.58128228897E+01 0.47912561288E+01 0.40735268250E+01 0.36349552474E+01 0.34110148598E+01
 0.33438387152E+01 0.34110193762E+01 0.36349578567E+01 0.40735194092E+01 0.47912374864E+01
 0.58127964191E+01 0.71896478169E+01 0.90811911838E+01 0.17653131054E+02 0.21204047682E+02
 0.23963855865E+02 0.25472662881E+02 0.25473607383E+02 0.23964642637E+02 0.21202657076E+02
 0.17651725082E+02 0.13890961699E+02 0.10490969015E+02 0.78560232527E+01 0.60709121083E+01
 0.48729601046E+01 0.40710618674E+01 0.36112780120E+01 0.34103598054E+01 0.34114973783E+01
 0.36125554182E+01 0.40702172145E+01 0.48718420942E+01 0.60715755201E+01 0.78566642158E+01
 0.10489814473E+02 0.13890136227E+02 0.26314189743E+02 0.30679544104E+02 0.33627449167E+02
 0.34670558468E+02 0.33627479578E+02 0.30679578859E+02 0.26314198752E+02 0.21202223929E+02
 0.16081178603E+02 0.11636131295E+02 0.83286320665E+01 0.62128080500E+01 0.49014675971E+01
 0.40715970251E+01 0.36353736578E+01 0.35020762313E+01 0.36353834450E+01 0.40716063661E+01
 0.49014688949E+01 0.62128079672E+01 0.83286465945E+01 0.11636166947E+02 0.16081224102E+02
 0.21202250349E+02 0.36898895374E+02 0.41763594340E+02 0.44457347522E+02 0.44456275647E+02
 0.41762955909E+02 0.36900949172E+02 0.30679436522E+02 0.23963395822E+02 0.17584371977E+02
 0.12277445750E+02 0.85003144361E+01 0.62128071619E+01 0.48717039151E+01 0.40745600830E+01
 0.37155632449E+01 0.37138977261E+01 0.40727505965E+01 0.48730889089E+01 0.62144879295E+01
 0.84990822402E+01 0.12276119551E+02 0.17586026256E+02 0.23965096858E+02 0.30677920728E+02
 0.48916281430E+02 0.53934557020E+02 0.55755942066E+02 0.53934569266E+02 0.48916307836E+02
 0.41763724722E+02 0.33628655960E+02 0.25473129381E+02 0.18118853252E+02 0.12276880546E+02
 0.83298138595E+01 0.60710975881E+01 0.47896450485E+01 0.40908672212E+01 0.38747415459E+01
 0.40908577646E+01 0.47896355157E+01 0.60710975180E+01 0.83298229768E+01 0.12276888363E+02
 0.18118847185E+02 0.25473104294E+02 0.33628619599E+02 0.41763688614E+02 0.61761585117E+02
 0.66280562104E+02 0.66281447504E+02 0.61761805671E+02 0.53933735243E+02 0.44456210436E+02
 0.34672303640E+02 0.25473974906E+02 0.17584326450E+02 0.11634637521E+02 0.78573295291E+01
 0.58135708186E+01 0.46728352433E+01 0.41421691095E+01 0.41440652134E+01 0.46748952511E+01
 0.58119623960E+01 0.78553521907E+01 0.11636089821E+02 0.17586091466E+02 0.25472270271E+02
 0.34670099258E+02 0.44457444807E+02 0.53936026504E+02 0.74025700115E+02 0.76907692182E+02
 0.74025616699E+02 0.66281740913E+02 0.55754765684E+02 0.44455451278E+02 0.33627449167E+02
 0.23965461299E+02 0.16081210409E+02 0.10489141306E+02 0.71900621188E+01 0.54753664499E+01
 0.45503093588E+01 0.42559823687E+01 0.45502962535E+01 0.54753583131E+01 0.71900734053E+01
 0.10489165044E+02 0.16081224102E+02 0.23965455477E+02 0.33627443217E+02 0.44455483352E+02
 0.55754854013E+02 0.66281857251E+02 0.83207292295E+02 0.83206581290E+02 0.76908064683E+02
 0.66282151058E+02 0.53935311950E+02 0.41762070597E+02 0.30677878024E+02 0.21204324611E+02
 0.13891268240E+02 0.90798445364E+01 0.64583594217E+01 0.50997486122E+01 0.44569978751E+01
 0.44550484349E+01 0.50976030278E+01 0.64599853450E+01 0.90819461144E+01 0.13889859298E+02
 0.21202406568E+02 0.30679444471E+02 0.41764443544E+02 0.53934437550E+02 0.66279974889E+02
 0.76908050829E+02 0.83207292295E+02 0.76908050829E+02 0.66279974889E+02 0.53934437550E+02
 0.41764443544E+02 0.30679444471E+02 0.21202406568E+02 0.13889859298E+02 0.90819461144E+01
 0.64599853450E+01 0.50976030278E+01 0.44550484349E+01 0.44569978751E+01 0.50997486122E+01
 0.64583594217E+01 0.90798445364E+01 0.13891268240E+02 0.21204324611E+02 0.30677878024E+02
 0.41762070597E+02 0.53935311950E+02 0.66282151058E+02 0.76908064683E+02 0.83206581290E+02
 0.76907128949E+02 0.68642660791E+02 0.57502191185E+02 0.45686845060E+02 0.34502438188E+02
 0.24597818473E+02 0.16519268595E+02 0.10759596005E+02 0.73386607679E+01 0.55675854471E+01
 0.46174942931E+01 0.43141375123E+01 0.46173278008E+01 0.55675867212E+01 0.73389162835E+01
 0.10759815570E+02 0.16519180135E+02 0.24597287063E+02 0.34501473498E+02 0.45686004649E+02
 0.57502550847E+02 0.68644507508E+02 0.76908990431E+02 0.79996306159E+02 0.66279866907E+02
 0.57502892913E+02 0.47083887353E+02 0.36568029865E+02 0.26851398412E+02 0.18560101702E+02
 0.12261525768E+02 0.82079616554E+01 0.60110353399E+01 0.48138736860E+01 0.42508975639E+01
 0.42489628780E+01 0.48117671263E+01 0.60127185077E+01 0.82101508604E+01 0.12260211686E+02
 0.18558066641E+02 0.26852323865E+02 0.36569408741E+02 0.47082605662E+02 0.57501712511E+02
 0.66281669735E+02 0.71414702480E+02 0.71413067548E+02 0.53934122565E+02 0.45687947014E+02
 0.36569947716E+02 0.27641011701E+02 0.19666467317E+02 0.13293671760E+02 0.89182698361E+01
 0.63909010045E+01 0.50006350012E+01 0.42391775058E+01 0.40020560413E+01 0.42393658214E+01
 0.50006131326E+01 0.63906297029E+01 0.89181745229E+01 0.13293940816E+02 0.19666842893E+02
 0.27641278108E+02 0.36570058049E+02 0.45687705393E+02 0.53933405273E+02 0.59852948462E+02
 0.62028213095E+02 0.59853663842E+02 0.41762907945E+02 0.34501729191E+02 0.26853021803E+02
 0.19668395845E+02 0.13659914141E+02 0.93135366785E+01 0.66528993804E+01 0.51486085259E+01
 0.42549163881E+01 0.38496560768E+01 0.38514758334E+01 0.42568500785E+01 0.51469592687E+01
 0.66509460190E+01 0.93150517688E+01 0.13661920892E+02 0.19667190609E+02 0.26851265451E+02
 0.34502844132E+02 0.41764372123E+02 0.47594696072E+02 0.50889691155E+02 0.50891039613E+02
 0.47595944918E+02 0.30678598366E+02 0.24595715907E+02 0.18559343839E+02 0.13294696773E+02
 0.93143273131E+01 0.67444797336E+01 0.52260150705E+01 0.42766488974E+01 0.37712734849E+01
 0.36160855771E+01 0.37713154999E+01 0.42767201462E+01 0.52261368143E+01 0.67446183206E+01
 0.93143065803E+01 0.13294381017E+02 0.18558918893E+02 0.24595578774E+02 0.30678928033E+02
 0.35974424411E+02 0.39623039899E+02 0.40930160481E+02 0.39622629138E+02 0.35973857141E+02
 0.21203744599E+02 0.16518658368E+02 0.12260126903E+02 0.89177127218E+01 0.66527244747E+01
 0.52254612688E+01 0.42831979015E+01 0.37391085394E+01 0.34991120624E+01 0.34978644082E+01
 0.37378027567E+01 0.42843561521E+01 0.52267834661E+01 0.66516831815E+01 0.89164950569E+01
 0.12261214195E+02 0.16519925992E+02 0.21202709698E+02 0.25644583776E+02 0.29138203547E+02
 0.31067766419E+02 0.31066885740E+02 0.29137552725E+02 0.25645958314E+02 0.13891299684E+02
 0.10760775395E+02 0.82081762503E+01 0.63908751924E+01 0.51484333346E+01 0.42756972496E+01
 0.37379582151E+01 0.34629199240E+01 0.33804164882E+01 0.34628052345E+01 0.37377890746E+01
 0.42755439031E+01 0.51484194935E+01 0.63911657811E+01 0.82087365860E+01 0.10761209544E+02
 0.13891166681E+02 0.17183715842E+02 0.20098331921E+02 0.22107702904E+02 0.22825277719E+02
 0.22108193930E+02 0.20099138470E+02 0.17184407453E+02 0.90814256631E+01 0.73390222802E+01
 0.60116789408E+01 0.50015296646E+01 0.42559315356E+01 0.37715482107E+01 0.34982988452E+01
 0.33795513556E+01 0.33800350661E+01 0.34987938029E+01 0.37710870616E+01 0.42554451782E+01
 0.50019950500E+01 0.60122008329E+01 0.73386428838E+01 0.90810102944E+01 0.11123054181E+02
 0.13160952484E+02 0.14812556923E+02 0.15738083090E+02 0.15738598876E+02 0.14813142190E+02
 0.13160601076E+02 0.11122626718E+02 0.64591183056E+01 0.55666171721E+01 0.48131479593E+01
 0.42390827064E+01 0.38504308079E+01 0.36172198683E+01 0.34984438241E+01 0.34626276475E+01
 0.34984969482E+01 0.36174931334E+01 0.38507419060E+01 0.42389667456E+01 0.48125669783E+01
 0.55661401105E+01 0.64591933477E+01 0.75101741085E+01 0.86587890673E+01 0.97232387403E+01
 0.10480751719E+02 0.10755291346E+02 0.10480685765E+02 0.97230288718E+01 0.86583647901E+01
 0.75097130127E+01 0.50983689903E+01 0.46174333560E+01 0.42500674971E+01 0.40009481998E+01
 0.38507338546E+01 0.37713159382E+01 0.37383715548E+01 0.37383826695E+01 0.37713257016E+01
 0.38507128119E+01 0.40009114752E+01 0.42500482874E+01 0.46174327290E+01 0.50983811263E+01
 0.56545380363E+01 0.62260213300E+01 0.67725467038E+01 0.72193087957E+01 0.74732961824E+01
 0.74733072900E+01 0.72193146801E+01 0.67725152013E+01 0.62259692735E+01 0.56545016727E+01
 0.44560067487E+01 0.43153108453E+01 0.42496560460E+01 0.42393420285E+01 0.42561932765E+01
 0.42757660519E+01 0.42836884573E+01 0.42755459223E+01 0.42558246807E+01 0.42391383404E+01
 0.42499368697E+01 0.43159146109E+01 0.44563540110E+01 0.46712564157E+01 0.49367561937E+01
 0.52100441634E+01 0.54429529369E+01 0.55970249680E+01 0.56507562926E+01 0.55969227675E+01
 0.54429652485E+01 0.52103776626E+01 0.49372761012E+01 0.46714872651E+01 0.44563105159E+01
 0.46175262435E+01 0.48125782679E+01 0.50016724836E+01 0.51478075083E+01 0.52262478485E+01
 0.52261400163E+01 0.51477217965E+01 0.50018281422E+01 0.48126988194E+01 0.46173649951E+01
 0.44561450876E+01 0.43580674939E+01 0.43306081355E+01 0.43594365593E+01 0.44167920796E+01
 0.44731571963E+01 0.45065840537E+01 0.45064536016E+01 0.44730308961E+01 0.44169364690E+01
 0.43595928855E+01 0.43305115979E+01 0.43579720341E+01 0.50988729714E+01 0.55665313976E+01
 0.60120001359E+01 0.63906263554E+01 0.66517188588E+01 0.67456655631E+01 0.66522690284E+01
 0.63910809761E+01 0.60119035624E+01 0.55660530619E+01 0.50984179772E+01 0.46711829337E+01
 0.43304818851E+01 0.40923979070E+01 0.39463482720E+01 0.38681250578E+01 0.38329697991E+01
 0.38235001516E+01 0.38332865588E+01 0.38682441807E+01 0.39460093934E+01 0.40919147415E+01
 0.43302662822E+01 0.46713544072E+01 0.64591598506E+01 0.73388011779E+01 0.82092782651E+01
 0.89171201491E+01 0.93143566884E+01 0.93142586668E+01 0.89170213265E+01 0.82093832847E+01
 0.73389295678E+01 0.64591164404E+01 0.56544955079E+01 0.49369240661E+01 0.43595604984E+01
 0.39462711789E+01 0.36823020712E+01 0.35343390222E+01 0.34698156710E+01 0.34697149948E+01
 0.35342325565E+01 0.36823938500E+01 0.39463733079E+01 0.43594693932E+01 0.49368111140E+01
 0.56545442012E+01 0.90809690952E+01 0.10760975957E+02 0.12260726772E+02 0.13293921338E+02
 0.13661439291E+02 0.13293422996E+02 0.12260371832E+02 0.10761215878E+02 0.90815658052E+01
 0.75103432991E+01 0.62257352517E+01 0.52100484787E+01 0.44171814402E+01 0.38682052887E+01
 0.35340040601E+01 0.33629419598E+01 0.33113683470E+01 0.33627060411E+01 0.35338407654E+01
 0.38683506734E+01 0.44175672162E+01 0.52103978307E+01 0.62257590963E+01 0.75099286040E+01
 0.13890862955E+02 0.16519648423E+02 0.18558585714E+02 0.19667620213E+02 0.19668320923E+02
 0.18559304968E+02 0.16518994263E+02 0.13890187201E+02 0.11123169347E+02 0.86591980299E+01
 0.67721927324E+01 0.54424620222E+01 0.44734392708E+01 0.38333775999E+01 0.34694136557E+01
 0.33107030016E+01 0.33114375148E+01 0.34701733459E+01 0.38326833739E+01 0.44726799201E+01
 0.54431099280E+01 0.67729191356E+01 0.86585757335E+01 0.11122511552E+02 0.21203454968E+02
 0.24596934011E+02 0.26851592646E+02 0.27640562630E+02 0.26852040477E+02 0.24597328287E+02
 0.21203283402E+02 0.17182917187E+02 0.13160654718E+02 0.97238539628E+01 0.72193364030E+01
 0.55962399110E+01 0.45064570997E+01 0.38242024228E+01 0.34697861953E+01 0.33619195661E+01
 0.34697679850E+01 0.38243437038E+01 0.45066127521E+01 0.55960228332E+01 0.72188231155E+01
 0.97236616085E+01 0.13161115539E+02 0.17183570305E+02 0.30677933645E+02 0.34502112581E+02
 0.36569277683E+02 0.36568246117E+02 0.34501404421E+02 0.30679635175E+02 0.25645851583E+02
 0.20098217810E+02 0.14812093110E+02 0.10481425434E+02 0.74739951911E+01 0.56501662543E+01
 0.45058290857E+01 0.38339600954E+01 0.35349740937E+01 0.35334191425E+01 0.38323380729E+01
 0.45072917290E+01 0.56518332964E+01 0.74726924853E+01 0.10479886752E+02 0.14813479263E+02
 0.20099919659E+02 0.25644690507E+02 0.41761783402E+02 0.45687177916E+02 0.47084540145E+02
 0.45687681622E+02 0.41762482371E+02 0.35973485168E+02 0.29138785431E+02 0.22107704945E+02
 0.15737224893E+02 0.10755471909E+02 0.74744410255E+01 0.55969227895E+01 0.44720086300E+01
 0.38683373070E+01 0.36834792402E+01 0.38683463801E+01 0.44719323168E+01 0.55968186579E+01
 0.74745305423E+01 0.10755836433E+02 0.15737656675E+02 0.22107905204E+02 0.29138600096E+02
 0.35972942735E+02 0.53933690296E+02 0.57501812342E+02 0.57503477234E+02 0.53935417011E+02
 0.47594610017E+02 0.39622225666E+02 0.31068090309E+02 0.22825539784E+02 0.15737497673E+02
 0.10479888863E+02 0.72202104613E+01 0.54437131968E+01 0.44160021740E+01 0.39452121367E+01
 0.39472221907E+01 0.44181422094E+01 0.54418935585E+01 0.72180193996E+01 0.10481475447E+02
 0.15739638391E+02 0.22824247390E+02 0.31066294892E+02 0.39623518114E+02 0.47596030973E+02
 0.66281304162E+02 0.68642187213E+02 0.66280965227E+02 0.59854246151E+02 0.50890483231E+02
 0.40929942752E+02 0.31067494248E+02 0.22109419883E+02 0.14812868600E+02 0.97216768520E+01
 0.67725743600E+01 0.52116154933E+01 0.43594903555E+01 0.40906497704E+01 0.43595717812E+01
 0.52116355735E+01 0.67725409466E+01 0.97216943662E+01 0.14812825472E+02 0.22109124174E+02
 0.31067119320E+02 0.40929923330E+02 0.50890934535E+02 0.59854819748E+02 0.76909685867E+02
 0.76908117693E+02 0.71413053008E+02 0.62027958676E+02 0.50891160284E+02 0.39621818351E+02
 0.29137302118E+02 0.20100589962E+02 0.13161707615E+02 0.86575254258E+01 0.62251498679E+01
 0.49382523718E+01 0.43314612230E+01 0.43294301539E+01 0.49360342369E+01 0.62269028583E+01
 0.86598068001E+01 0.13160288908E+02 0.20098401244E+02 0.29138320903E+02 0.39623497454E+02
 0.50890078535E+02 0.62026741142E+02 0.71414717020E+02 0.83208590313E+02 0.79997501765E+02
 0.71412719636E+02 0.59853632625E+02 0.47596351338E+02 0.35972935289E+02 0.25644251695E+02
 0.17184402048E+02 0.11124071178E+02 0.75099168644E+01 0.56533477723E+01 0.46714798408E+01
 0.43592576201E+01 0.46714798408E+01 0.56533477723E+01 0.75099168644E+01 0.11124071178E+02
 0.17184402048E+02 0.25644251695E+02 0.35972935289E+02 0.47596351338E+02 0.59853632625E+02
 0.71412719636E+02 0.79997501765E+02 0.74025700115E+02 0.66281857251E+02 0.55754854013E+02
 0.44455483352E+02 0.33627443217E+02 0.23965455477E+02 0.16081224102E+02 0.10489165044E+02
 0.71900734053E+01 0.54753583131E+01 0.45502962535E+01 0.42559823687E+01 0.45503093588E+01
 0.54753664499E+01 0.71900621188E+01 0.10489141306E+02 0.16081210409E+02 0.23965461299E+02
 0.33627449167E+02 0.44455451278E+02 0.55754765684E+02 0.66281740913E+02 0.74025616699E+02
 0.76907692182E+02 0.66279866907E+02 0.57502892913E+02 0.47083887353E+02 0.36568029865E+02
 0.26851398412E+02 0.18560101702E+02 0.12261525768E+02 0.82079616554E+01 0.60110353399E+01
 0.48138736860E+01 0.42508975639E+01 0.42489628780E+01 0.48117671263E+01 0.60127185077E+01
 0.82101508604E+01 0.12260211686E+02 0.18558066641E+02 0.26852323865E+02 0.36569408741E+02
 0.47082605662E+02 0.57501712511E+02 0.66281669735E+02 0.71414702480E+02 0.71413067548E+02
 0.55753711092E+02 0.47083064288E+02 0.37593507206E+02 0.28385861931E+02 0.20199548047E+02
 0.13649063562E+02 0.91273672984E+01 0.65041401757E+01 0.50744773886E+01 0.42914695500E+01
 0.40468802548E+01 0.42914845972E+01 0.50744886022E+01 0.65041324385E+01 0.91273496062E+01
 0.13649061574E+02 0.20199578650E+02 0.28385905359E+02 0.37593525416E+02 0.47083029379E+02
 0.55753638710E+02 0.62027510171E+02 0.64342055284E+02 0.62027567548E+02 0.44455881325E+02
 0.36568083626E+02 0.28386631237E+02 0.20772978952E+02 0.14405509678E+02 0.97624249618E+01
 0.68951481682E+01 0.52961172038E+01 0.43532629090E+01 0.39229481999E+01 0.39247146795E+01
 0.43551670326E+01 0.52945340397E+01 0.68931136526E+01 0.97636132400E+01 0.14407373437E+02
 0.20772215888E+02 0.28385570067E+02 0.36569392155E+02 0.44456773719E+02 0.50889592669E+02
 0.54564993151E+02 0.54566722262E+02 0.50891674247E+02 0.33627443217E+02 0.26851231689E+02
 0.20200690968E+02 0.14407268772E+02 0.99903186749E+01 0.71101530271E+01 0.54384942843E+01
 0.44123416996E+01 0.38606718342E+01 0.36905472957E+01 0.38606735582E+01 0.44123440991E+01
 0.54384957445E+01 0.71101522556E+01 0.99903186763E+01 0.14407274366E+02 0.20200711759E+02
 0.26851270212E+02 0.33627495189E+02 0.39623712781E+02 0.43818656867E+02 0.45335061204E+02
 0.43818623864E+02 0.39623660836E+02 0.23964888420E+02 0.18558678414E+02 0.13648463341E+02
 0.97637944883E+01 0.71117430375E+01 0.54868016274E+01 0.44431567808E+01 0.38337239405E+01
 0.35633765800E+01 0.35619966276E+01 0.38322829602E+01 0.44445025788E+01 0.54884497359E+01
 0.71107476272E+01 0.97622334417E+01 0.13649002319E+02 0.18559468278E+02 0.23963862328E+02
 0.29137551670E+02 0.33258843739E+02 0.35558867864E+02 0.35557360469E+02 0.33256926768E+02
 0.29138094718E+02 0.16081898276E+02 0.12260702702E+02 0.91255502034E+01 0.68943788629E+01
 0.54391684582E+01 0.44437570021E+01 0.38246800362E+01 0.35068693627E+01 0.34114576425E+01
 0.35068596889E+01 0.38246720064E+01 0.44437595516E+01 0.54391786148E+01 0.68943787686E+01
 0.91255276611E+01 0.12260658817E+02 0.16081850778E+02 0.20099196483E+02 0.23673732024E+02
 0.26155578376E+02 0.27045991936E+02 0.26155577961E+02 0.23673742694E+02 0.20099227651E+02
 0.10490671875E+02 0.82091242741E+01 0.65038006229E+01 0.52950083458E+01 0.44116914632E+01
 0.38334632720E+01 0.35065298100E+01 0.33646150583E+01 0.33653745051E+01 0.35072552150E+01
 0.38325507175E+01 0.44106639512E+01 0.52956569536E+01 0.65049095131E+01 0.82090058368E+01
 0.10490233068E+02 0.13161184990E+02 0.15822786765E+02 0.17982835821E+02 0.19196398548E+02
 0.19197333020E+02 0.17984131357E+02 0.15822729514E+02 0.13160775762E+02 0.71900734053E+01
 0.60121422844E+01 0.50756203096E+01 0.43537483358E+01 0.38606718342E+01 0.35630602372E+01
 0.34107834686E+01 0.33647510738E+01 0.34107849054E+01 0.35630611441E+01 0.38606744891E+01
 0.43537578205E+01 0.50756429037E+01 0.60121764932E+01 0.71901012639E+01 0.86587031493E+01
 0.10287492619E+02 0.11801096842E+02 0.12879242099E+02 0.13270273725E+02 0.12879272464E+02
 0.11801136602E+02 0.10287515307E+02 0.86586965152E+01 0.54741176997E+01 0.48131239556E+01
 0.42915428855E+01 0.39236441696E+01 0.36914637493E+01 0.35626701845E+01 0.35069330245E+01
 0.35068423268E+01 0.35627039301E+01 0.36918881955E+01 0.39240011283E+01 0.42912938475E+01
 0.48125174010E+01 0.54737895812E+01 0.62260954680E+01 0.70537623799E+01 0.78929439365E+01
 0.85953285044E+01 0.89983210397E+01 0.89981070610E+01 0.85948989751E+01 0.78925824010E+01
 0.70534964856E+01 0.62260031164E+01 0.45503363482E+01 0.42500744980E+01 0.40456972390E+01
 0.39239453742E+01 0.38607136529E+01 0.38328831815E+01 0.38253060855E+01 0.38328902703E+01
 0.38607145839E+01 0.39239277928E+01 0.40456647054E+01 0.42500483923E+01 0.45503334111E+01
 0.49368818304E+01 0.53721590077E+01 0.57981027646E+01 0.61631641009E+01 0.64174556055E+01
 0.65093991380E+01 0.64174603040E+01 0.61631610413E+01 0.57980829177E+01 0.53721283902E+01
 0.49368606433E+01 0.42572389869E+01 0.42498752843E+01 0.42913952569E+01 0.43543083869E+01
 0.44114436504E+01 0.44439916979E+01 0.44436702112E+01 0.44109141635E+01 0.43541310393E+01
 0.42914565234E+01 0.42499590519E+01 0.42575683825E+01 0.43306928436E+01 0.44654972694E+01
 0.46378657119E+01 0.48113698415E+01 0.49491671462E+01 0.50243189078E+01 0.50240985670E+01
 0.49490444674E+01 0.48119163379E+01 0.46385205511E+01 0.44654538924E+01 0.43301672200E+01
 0.45503093588E+01 0.48127263899E+01 0.50756315232E+01 0.52951671473E+01 0.54384957445E+01
 0.54879857123E+01 0.54385044409E+01 0.52951812032E+01 0.50756429037E+01 0.48127269342E+01
 0.45502933163E+01 0.43304673056E+01 0.41791692512E+01 0.40991674826E+01 0.40741229578E+01
 0.40793641594E+01 0.40922882598E+01 0.40982388085E+01 0.40922809998E+01 0.40793596094E+01
 0.40741315773E+01 0.40991944866E+01 0.41792059703E+01 0.43304986189E+01 0.54741574041E+01
 0.60119372097E+01 0.65041742064E+01 0.68938411899E+01 0.71111002768E+01 0.71113896165E+01
 0.68944205365E+01 0.65045281924E+01 0.60118508468E+01 0.54737580136E+01 0.49369235983E+01
 0.44653661611E+01 0.40989895170E+01 0.38452788593E+01 0.36879096352E+01 0.36016471335E+01
 0.35646527164E+01 0.35647804236E+01 0.36017605583E+01 0.36876507146E+01 0.38448033270E+01
 0.40987659121E+01 0.44655850007E+01 0.49373841974E+01 0.71901633068E+01 0.82093277944E+01
 0.91261054972E+01 0.97628439348E+01 0.99904198643E+01 0.97628336630E+01 0.91261006470E+01
 0.82093453895E+01 0.71902024519E+01 0.62260221325E+01 0.53720979144E+01 0.46379550523E+01
 0.40742241458E+01 0.36878678673E+01 0.34522054627E+01 0.33303992634E+01 0.32934046424E+01
 0.33303896403E+01 0.34521960013E+01 0.36878672572E+01 0.40742262342E+01 0.46379475452E+01
 0.53720672969E+01 0.62259762743E+01 0.10490537250E+02 0.12261263419E+02 0.13648832907E+02
 0.14406375465E+02 0.14406513244E+02 0.13648630765E+02 0.12260430150E+02 0.10490343954E+02
 0.86592156946E+01 0.70540643822E+01 0.57978740978E+01 0.48112305151E+01 0.40797290238E+01
 0.36019175682E+01 0.33301705966E+01 0.32111242794E+01 0.32115614364E+01 0.33305873369E+01
 0.36014982305E+01 0.40795176160E+01 0.48120456271E+01 0.57984242751E+01 0.70531944833E+01
 0.86581231655E+01 0.16081210409E+02 0.18559461738E+02 0.20200721571E+02 0.20772413161E+02
 0.20200711759E+02 0.18559440088E+02 0.16081176604E+02 0.13160273405E+02 0.10287492619E+02
 0.78935893039E+01 0.61631240061E+01 0.49485057739E+01 0.40922882598E+01 0.35652665162E+01
 0.32933034544E+01 0.32107607378E+01 0.32933141667E+01 0.35652767472E+01 0.40922873496E+01
 0.49484930404E+01 0.61631118043E+01 0.78935932669E+01 0.10287515307E+02 0.13160309176E+02
 0.23963723828E+02 0.26852070992E+02 0.28386475552E+02 0.28385769179E+02 0.26851689808E+02
 0.23965032742E+02 0.20099766676E+02 0.15821877019E+02 0.11800242770E+02 0.85958253616E+01
 0.64180257982E+01 0.50236593746E+01 0.40975324181E+01 0.35653088484E+01 0.33309598331E+01
 0.33297884774E+01 0.35641345226E+01 0.40986910106E+01 0.50247545823E+01 0.64166355206E+01
 0.85943948051E+01 0.11801487964E+02 0.15823639260E+02 0.20099193363E+02 0.33626456837E+02
 0.36568585675E+02 0.37593374825E+02 0.36568622849E+02 0.33626502859E+02 0.29138151892E+02
 0.23675398528E+02 0.17983175374E+02 0.12878249768E+02 0.89982477041E+01 0.65104315629E+01
 0.50241879074E+01 0.40912886697E+01 0.36017187904E+01 0.34532895194E+01 0.36017268972E+01
 0.40912950194E+01 0.50241843895E+01 0.65104249668E+01 0.89982521530E+01 0.12878273452E+02
 0.17983205576E+02 0.23675409198E+02 0.29138128524E+02 0.44455831926E+02 0.47082642099E+02
 0.47083816008E+02 0.44456791043E+02 0.39621936363E+02 0.33257456888E+02 0.26156365006E+02
 0.19197524730E+02 0.13269770974E+02 0.89973937671E+01 0.64182469333E+01 0.49499204371E+01
 0.40787091777E+01 0.36869058532E+01 0.36886538866E+01 0.40805329121E+01 0.49482784429E+01
 0.64164190840E+01 0.89990387823E+01 0.13271817077E+02 0.19196195187E+02 0.26154321028E+02