   1   1   0   0
  0.1385055E+02  0.2695633E-09  0.2695633E-09  0.2695633E-09  0.5000000E-15
  1.000000000000000E-004
  CAR 
 unknown system                          
     36.89312281      1.39525388  301     10.91220729      1.00000000
      1.395  0.0000E+00  0.0000E+00
      1.514  0.0000E+00  0.0000E+00
      1.632  0.0000E+00  0.0000E+00
      1.750 -0.2124E-31 -0.2513E-32
      1.869 -0.2341E-27 -0.2770E-28
      1.987 -0.1273E-23 -0.1507E-24
      2.105 -0.3416E-20 -0.4043E-21
      2.224 -0.4388E-17 -0.5196E-18
      2.342 -0.2822E-14 -0.3344E-15
      2.460 -0.8881E-12 -0.1054E-12
      2.579 -0.1357E-09 -0.1616E-10
      2.697 -0.9964E-08 -0.1195E-08
      2.815 -0.3447E-06 -0.4198E-07
      2.933 -0.5381E-05 -0.6787E-06
      3.052 -0.3346E-04 -0.4638E-05
      3.170 -0.3548E-04 -0.8836E-05
      3.288  0.3120E-03  0.2808E-04
      3.407  0.8931E-03  0.1338E-03
      3.525  0.7091E-03  0.2177E-03
      3.643  0.7138E-03  0.3021E-03
      3.762  0.2343E-02  0.5794E-03
      3.880  0.2789E-02  0.9094E-03
      3.998  0.1577E-02  0.1096E-02
      4.117  0.2245E-02  0.1362E-02
      4.235  0.2715E-02  0.1683E-02
      4.353  0.2083E-02  0.1929E-02
      4.472  0.3205E-02  0.2309E-02
      4.590  0.3462E-02  0.2718E-02
      4.708  0.3764E-02  0.3164E-02
      4.827  0.6405E-02  0.3921E-02
      4.945  0.6876E-02  0.4735E-02
      5.063  0.7018E-02  0.5565E-02
      5.182  0.1558E-01  0.7409E-02
      5.300  0.3135E-01  0.1112E-01
      5.418  0.4313E-01  0.1622E-01
      5.537  0.5115E-01  0.2227E-01
      5.655  0.5733E-01  0.2906E-01
      5.773  0.7084E-01  0.3744E-01
      5.892  0.7965E-01  0.4686E-01
      6.010  0.6877E-01  0.5500E-01
      6.128  0.6044E-01  0.6215E-01
      6.247  0.6025E-01  0.6928E-01
      6.365  0.5603E-01  0.7591E-01
      6.483  0.4562E-01  0.8131E-01
      6.602  0.3500E-01  0.8545E-01
      6.720  0.4364E-01  0.9062E-01
      6.838  0.6014E-01  0.9773E-01
      6.957  0.5376E-01  0.1041E+00
      7.075  0.4165E-01  0.1090E+00
      7.193  0.4536E-01  0.1144E+00
      7.312  0.4906E-01  0.1202E+00
      7.430  0.5090E-01  0.1262E+00
      7.548  0.5352E-01  0.1326E+00
      7.667  0.5805E-01  0.1394E+00
      7.785  0.6689E-01  0.1473E+00
      7.903  0.6988E-01  0.1556E+00
      8.022  0.7540E-01  0.1645E+00
      8.140  0.8692E-01  0.1748E+00
      8.258  0.8573E-01  0.1850E+00
      8.377  0.7036E-01  0.1933E+00
      8.495  0.5419E-01  0.1997E+00
      8.613  0.4967E-01  0.2056E+00
      8.731  0.5650E-01  0.2123E+00
      8.850  0.5340E-01  0.2186E+00
      8.968  0.3820E-01  0.2231E+00
      9.086  0.3656E-01  0.2274E+00
      9.205  0.5543E-01  0.2340E+00
      9.323  0.7390E-01  0.2427E+00
      9.441  0.7206E-01  0.2512E+00
      9.560  0.5480E-01  0.2577E+00
      9.678  0.4142E-01  0.2626E+00
      9.796  0.4821E-01  0.2683E+00
      9.915  0.6173E-01  0.2756E+00
     10.033  0.5507E-01  0.2822E+00
     10.151  0.3707E-01  0.2865E+00
     10.270  0.3961E-01  0.2912E+00
     10.388  0.5743E-01  0.2980E+00
     10.506  0.5736E-01  0.3048E+00
     10.625  0.5128E-01  0.3109E+00
     10.743  0.6818E-01  0.3189E+00
     10.861  0.8698E-01  0.3292E+00
     10.980  0.7262E-01  0.3378E+00
     11.098  0.5003E-01  0.3438E+00
     11.216  0.3986E-01  0.3485E+00
     11.335  0.2254E-01  0.3511E+00
     11.453  0.6176E-02  0.3519E+00
     11.571  0.2169E-02  0.3521E+00
     11.690  0.1539E-02  0.3523E+00
     11.808  0.2556E-03  0.3523E+00
     11.926  0.1020E-02  0.3525E+00
     12.045  0.4640E-02  0.3530E+00
     12.163  0.1228E-01  0.3545E+00
     12.281  0.1765E-01  0.3565E+00
     12.400  0.1464E-01  0.3583E+00
     12.518  0.1011E-01  0.3595E+00
     12.636  0.4892E-02  0.3601E+00
     12.755  0.8134E-03  0.3602E+00
     12.873  0.4468E-02  0.3607E+00
     12.991  0.1113E-01  0.3620E+00
     13.110  0.9651E-02  0.3631E+00
     13.228  0.6867E-02  0.3640E+00
     13.346  0.9195E-02  0.3650E+00
     13.465  0.8205E-02  0.3660E+00
     13.583  0.4329E-02  0.3665E+00
     13.701  0.5778E-02  0.3672E+00
     13.820  0.9873E-02  0.3684E+00
     13.938  0.1011E-01  0.3696E+00
     14.056  0.7233E-02  0.3704E+00
     14.174  0.6740E-02  0.3712E+00
     14.293  0.7375E-02  0.3721E+00
     14.411  0.6908E-02  0.3729E+00
     14.529  0.8256E-02  0.3739E+00
     14.648  0.1033E-01  0.3751E+00
     14.766  0.9456E-02  0.3762E+00
     14.884  0.1072E-01  0.3775E+00
     15.003  0.1516E-01  0.3793E+00
     15.121  0.9673E-02  0.3804E+00
     15.239  0.8805E-03  0.3805E+00
     15.358 -0.8896E-03  0.3804E+00
     15.476  0.2837E-02  0.3808E+00
     15.594  0.8556E-02  0.3818E+00
     15.713  0.9434E-02  0.3829E+00
     15.831  0.6188E-02  0.3836E+00
     15.949  0.8619E-02  0.3847E+00
     16.068  0.1213E-01  0.3861E+00
     16.186  0.9236E-02  0.3872E+00
     16.304  0.6673E-02  0.3880E+00
     16.423  0.5122E-02  0.3886E+00
     16.541  0.4065E-02  0.3891E+00
     16.659  0.3507E-02  0.3895E+00
     16.778  0.3827E-02  0.3899E+00
     16.896  0.8018E-02  0.3909E+00
     17.014  0.1081E-01  0.3922E+00
     17.133  0.7070E-02  0.3930E+00
     17.251  0.5258E-02  0.3936E+00
     17.369  0.5498E-02  0.3943E+00
     17.488  0.2588E-02  0.3946E+00
     17.606  0.1682E-02  0.3948E+00
     17.724  0.2524E-02  0.3951E+00
     17.843  0.1771E-02  0.3953E+00
     17.961  0.4227E-02  0.3958E+00
     18.079  0.9663E-02  0.3969E+00
     18.198  0.9513E-02  0.3980E+00
     18.316  0.3719E-02  0.3985E+00
     18.434 -0.2957E-03  0.3985E+00
     18.553 -0.1357E-02  0.3983E+00
     18.671  0.8617E-03  0.3984E+00
     18.789  0.1187E-01  0.3998E+00
     18.908  0.2404E-01  0.4026E+00
     19.026  0.2232E-01  0.4053E+00
     19.144  0.1191E-01  0.4067E+00
     19.263  0.3775E-02  0.4071E+00
     19.381  0.2490E-02  0.4074E+00
     19.499  0.9841E-02  0.4086E+00
     19.617  0.2025E-01  0.4110E+00
     19.736  0.1760E-01  0.4131E+00
     19.854  0.9050E-02  0.4141E+00
     19.972  0.8312E-02  0.4151E+00
     20.091  0.7763E-02  0.4160E+00
     20.209  0.7334E-02  0.4169E+00
     20.327  0.8258E-02  0.4179E+00
     20.446  0.6682E-02  0.4187E+00
     20.564  0.4580E-02  0.4192E+00
     20.682  0.6682E-02  0.4200E+00
     20.801  0.9417E-02  0.4211E+00
     20.919  0.1167E-01  0.4225E+00
     21.037  0.1460E-01  0.4242E+00
     21.156  0.1435E-01  0.4259E+00
     21.274  0.9926E-02  0.4271E+00
     21.392  0.4357E-02  0.4276E+00
     21.511  0.4102E-02  0.4281E+00
     21.629  0.7355E-02  0.4290E+00
     21.747  0.7062E-02  0.4298E+00
     21.866  0.7155E-02  0.4307E+00
     21.984  0.8333E-02  0.4317E+00
     22.102  0.7514E-02  0.4325E+00
     22.221  0.9140E-02  0.4336E+00
     22.339  0.1173E-01  0.4350E+00
     22.457  0.1511E-01  0.4368E+00
     22.576  0.2054E-01  0.4392E+00
     22.694  0.2429E-01  0.4421E+00
     22.812  0.2051E-01  0.4445E+00
     22.931  0.1473E-01  0.4463E+00
     23.049  0.1772E-01  0.4484E+00
     23.167  0.1934E-01  0.4507E+00
     23.286  0.1325E-01  0.4522E+00
     23.404  0.1153E-01  0.4536E+00
     23.522  0.1535E-01  0.4554E+00
     23.641  0.1637E-01  0.4573E+00
     23.759  0.1327E-01  0.4589E+00
     23.877  0.9025E-02  0.4600E+00
     23.996  0.6739E-02  0.4608E+00
     24.114  0.8141E-02  0.4617E+00
     24.232  0.1448E-01  0.4635E+00
     24.351  0.2144E-01  0.4660E+00
     24.469  0.2409E-01  0.4688E+00
     24.587  0.2172E-01  0.4714E+00
     24.706  0.2297E-01  0.4741E+00
     24.824  0.2263E-01  0.4768E+00
     24.942  0.1687E-01  0.4788E+00
     25.060  0.1198E-01  0.4802E+00
     25.179  0.6878E-02  0.4810E+00
     25.297  0.1185E-01  0.4824E+00
     25.415  0.2789E-01  0.4857E+00
     25.534  0.3332E-01  0.4897E+00
     25.652  0.2136E-01  0.4922E+00
     25.770  0.1057E-01  0.4935E+00
     25.889  0.9791E-02  0.4946E+00
     26.007  0.1440E-01  0.4963E+00
     26.125  0.1637E-01  0.4983E+00
     26.244  0.1303E-01  0.4998E+00
     26.362  0.8751E-02  0.5008E+00
     26.480  0.6943E-02  0.5017E+00
     26.599  0.1542E-01  0.5035E+00
     26.717  0.2649E-01  0.5066E+00
     26.835  0.2463E-01  0.5095E+00
     26.954  0.1904E-01  0.5118E+00
     27.072  0.2134E-01  0.5143E+00
     27.190  0.2387E-01  0.5171E+00
     27.309  0.2480E-01  0.5201E+00
     27.427  0.2285E-01  0.5228E+00
     27.545  0.1735E-01  0.5248E+00
     27.664  0.1507E-01  0.5266E+00
     27.782  0.1477E-01  0.5284E+00
     27.900  0.2615E-01  0.5314E+00
     28.019  0.3889E-01  0.5360E+00
     28.137  0.3055E-01  0.5397E+00
     28.255  0.1947E-01  0.5420E+00
     28.374  0.1665E-01  0.5439E+00
     28.492  0.7619E-02  0.5448E+00
     28.610  0.2878E-02  0.5452E+00
     28.729  0.1876E-01  0.5474E+00
     28.847  0.3608E-01  0.5517E+00
     28.965  0.2698E-01  0.5549E+00
     29.084  0.1293E-01  0.5564E+00
     29.202  0.1341E-01  0.5580E+00
     29.320  0.1618E-01  0.5599E+00
     29.439  0.2297E-01  0.5626E+00
     29.557  0.2484E-01  0.5655E+00
     29.675  0.1642E-01  0.5675E+00
     29.794  0.1601E-01  0.5694E+00
     29.912  0.2121E-01  0.5719E+00
     30.030  0.1903E-01  0.5741E+00
     30.149  0.1421E-01  0.5758E+00
     30.267  0.1026E-01  0.5770E+00
     30.385  0.4362E-02  0.5776E+00
     30.504  0.1223E-02  0.5777E+00
     30.622  0.4327E-02  0.5782E+00
     30.740  0.8199E-02  0.5792E+00
     30.858  0.9535E-02  0.5803E+00
     30.977  0.1066E-01  0.5816E+00
     31.095  0.1150E-01  0.5829E+00
     31.213  0.9624E-02  0.5841E+00
     31.332  0.4159E-02  0.5846E+00
     31.450 -0.7287E-04  0.5846E+00
     31.568  0.3224E-02  0.5849E+00
     31.687  0.1398E-01  0.5866E+00
     31.805  0.1851E-01  0.5888E+00
     31.923  0.1025E-01  0.5900E+00
     32.042  0.3711E-02  0.5904E+00
     32.160  0.5272E-02  0.5911E+00
     32.278  0.6002E-02  0.5918E+00
     32.397  0.4358E-02  0.5923E+00
     32.515  0.2424E-02  0.5926E+00
     32.633  0.2413E-02  0.5929E+00
     32.752  0.7371E-02  0.5937E+00
     32.870  0.9776E-02  0.5949E+00
     32.988  0.6492E-02  0.5957E+00
     33.107  0.4747E-02  0.5962E+00
     33.225  0.6037E-02  0.5969E+00
     33.343  0.5507E-02  0.5976E+00
     33.462  0.4160E-02  0.5981E+00
     33.580  0.5438E-02  0.5987E+00
     33.698  0.4972E-02  0.5993E+00
     33.817  0.1781E-02  0.5995E+00
     33.935 -0.8409E-04  0.5995E+00
     34.053 -0.1863E-03  0.5995E+00
     34.172 -0.3926E-04  0.5995E+00
     34.290 -0.1241E-04  0.5995E+00
     34.408 -0.4672E-04  0.5995E+00
     34.527 -0.2440E-04  0.5995E+00
     34.645  0.4287E-03  0.5995E+00
     34.763  0.1243E-02  0.5997E+00
     34.882  0.1575E-02  0.5999E+00
     35.000  0.1061E-02  0.6000E+00
     35.118  0.2682E-03  0.6000E+00
     35.237 -0.5236E-04  0.6000E+00
     35.355 -0.3527E-04  0.6000E+00
     35.473 -0.5463E-05  0.6000E+00
     35.592 -0.3464E-06  0.6000E+00
     35.710 -0.9981E-08  0.6000E+00
     35.828 -0.1358E-09  0.6000E+00
     35.947 -0.8883E-12  0.6000E+00
     36.065 -0.2822E-14  0.6000E+00
     36.183 -0.4398E-17  0.6000E+00
     36.301  0.0000E+00  0.6000E+00
     36.420  0.0000E+00  0.6000E+00
     36.538  0.0000E+00  0.6000E+00
     36.656  0.0000E+00  0.6000E+00
     36.775  0.0000E+00  0.6000E+00
     36.893  0.0000E+00  0.6000E+00
