    1    1   30    1
  0.1385055E+02  0.2695632E-09  0.2695632E-09  0.2695632E-09  0.5000000E-15
  1.000000000000000E-004
  CAR 
 unknown system                          
     10     60      9
 
  0.6250000E-01  0.6250000E-01  0.6250000E-01  0.3906250E-02
    1        3.395254
    2        7.704713
    3        7.815753
    4        7.815753
    5        9.522682
    6        9.522682
    7       28.269492
    8       32.292626
    9       33.417699
 
  0.1875000E+00  0.6250000E-01  0.6250000E-01  0.1171875E-01
    1        4.138104
    2        7.436301
    3        8.047790
    4        8.075967
    5        9.267780
    6        9.648210
    7       28.859390
    8       29.834848
    9       33.207065
 
  0.3125000E+00  0.6250000E-01  0.6250000E-01  0.1171875E-01
    1        5.230387
    2        7.699345
    3        8.085533
    4        8.131925
    5        9.530115
    6       10.258658
    7       25.276517
    8       29.138463
    9       33.527350
 
  0.4375000E+00  0.6250000E-01  0.6250000E-01  0.1171875E-01
    1        5.275441
    2        7.739553
    3        7.869882
    4        9.564754
    5       10.403896
    6       11.549717
    7       20.776705
    8       27.980919
    9       32.117667
 
 -0.4375000E+00  0.6250000E-01  0.6250000E-01  0.1171875E-01
    1        5.192005
    2        7.616213
    3        7.800043
    4       10.101522
    5       10.890246
    6       12.536823
    7       18.828579
    8       27.606871
    9       32.156519
 
 -0.3125000E+00  0.6250000E-01  0.6250000E-01  0.1171875E-01
    1        5.317103
    2        7.798373
    3        7.991200
    4        8.840093
    5       10.551562
    6       10.716729
    7       22.198484
    8       28.383636
    9       32.788938
 
 -0.1875000E+00  0.6250000E-01  0.6250000E-01  0.1171875E-01
    1        4.950740
    2        7.405955
    3        8.121960
    4        8.188395
    5        9.454583
    6        9.870032
    7       26.776189
    8       29.495211
    9       33.633028
 
 -0.6250000E-01  0.6250000E-01  0.6250000E-01  0.1171875E-01
    1        3.781885
    2        7.504348
    3        7.980308
    4        7.986985
    5        9.302681
    6        9.625353
    7       28.697946
    8       31.111596
    9       33.228686
 
  0.1875000E+00  0.1875000E+00  0.6250000E-01  0.1171875E-01
    1        4.487474
    2        7.124839
    3        8.290385
    4        8.322907
    5        9.013108
    6        9.819413
    7       29.347796
    8       30.111424
    9       32.404177
 
  0.3125000E+00  0.1875000E+00  0.6250000E-01  0.2343750E-01
    1        5.527269
    2        6.796682
    3        8.057642
    4        8.737772
    5        9.431214
    6       10.401856
    7       27.226325
    8       29.157289
    9       31.649629
 
  0.4375000E+00  0.1875000E+00  0.6250000E-01  0.2343750E-01
    1        5.801121
    2        7.365687
    3        7.793664
    4        8.575358
    5       10.506698
    6       12.173608
    7       22.512840
    8       28.304662
    9       29.885213
 
 -0.4375000E+00  0.1875000E+00  0.6250000E-01  0.2343750E-01
    1        5.716552
    2        7.179073
    3        8.317881
    4        8.706886
    5       10.812028
    6       14.654915
    7       18.811714
    8       27.602476
    9       29.433610
 
 -0.3125000E+00  0.1875000E+00  0.6250000E-01  0.2343750E-01
    1        5.855101
    2        7.342397
    3        8.173055
    4        8.486405
    5       10.273013
    6       13.258821
    7       21.102496
    8       27.375629
    9       29.901718
 
 -0.1875000E+00  0.1875000E+00  0.6250000E-01  0.2343750E-01
    1        5.891857
    2        7.028188
    3        7.832753
    4        8.683815
    5        9.255907
    6       11.192838
    7       25.702776
    8       27.891270
    9       31.721214
 
 -0.6250000E-01  0.1875000E+00  0.6250000E-01  0.2343750E-01
    1        4.784671
    2        7.171955
    3        8.179676
    4        8.319932
    5        9.125104
    6        9.937711
    7       28.304537
    8       29.427283
    9       32.754236
 
  0.3125000E+00  0.3125000E+00  0.6250000E-01  0.1171875E-01
    1        5.687912
    2        6.194993
    3        8.792774
    4        9.385681
    5       10.034304
    6       10.377958
    7       27.620495
    8       28.808039
    9       29.209642
 
  0.4375000E+00  0.3125000E+00  0.6250000E-01  0.2343750E-01
    1        5.752613
    2        6.033795
    3        8.684071
    4        9.848841
    5       10.593062
    6       12.444353
    7       24.665767
    8       26.634067
    9       27.104034
 
 -0.4375000E+00  0.3125000E+00  0.6250000E-01  0.2343750E-01
    1        5.852728
    2        6.501202
    3        8.257139
    4        9.437803
    5       10.898818
    6       16.007949
    7       20.184077
    8       24.970638
    9       27.057109
 
 -0.3125000E+00  0.3125000E+00  0.6250000E-01  0.2343750E-01
    1        6.340044
    2        6.972953
    3        7.635424
    4        9.148734
    5       10.324978
    6       16.241723
    7       20.658901
    8       23.445052
    9       28.782426
 
 -0.1875000E+00  0.3125000E+00  0.6250000E-01  0.2343750E-01
    1        6.471618
    2        7.176761
    3        7.398795
    4        8.889052
    5        9.730800
    6       13.399142
    7       23.101381
    8       25.388433
    9       30.080827
 
 -0.6250000E-01  0.3125000E+00  0.6250000E-01  0.2343750E-01
    1        5.544579
    2        7.760189
    3        7.871542
    4        8.266295
    5        9.914193
    6       10.992181
    7       23.872688
    8       28.762325
    9       31.816291
 
  0.4375000E+00  0.4375000E+00  0.6250000E-01  0.1171875E-01
    1        5.223487
    2        5.494773
    3       10.391046
    4       10.492108
    5       10.956515
    6       13.011451
    7       24.441292
    8       24.839712
    9       25.538922
 
 -0.4375000E+00  0.4375000E+00  0.6250000E-01  0.2343750E-01
    1        5.270900
    2        5.592254
    3        9.822840
    4       10.454943
    5       11.144697
    6       15.683230
    7       22.391825
    8       23.086092
    9       24.760580
 
 -0.3125000E+00  0.4375000E+00  0.6250000E-01  0.2343750E-01
    1        5.753508
    2        6.353229
    3        8.497793
    4        9.737347
    5       10.841421
    6       18.011109
    7       19.553463
    8       22.752156
    9       26.636314
 
 -0.1875000E+00  0.4375000E+00  0.6250000E-01  0.2343750E-01
    1        6.099917
    2        6.924937
    3        8.146875
    4        8.750008
    5       10.618260
    6       15.972312
    7       18.982424
    8       25.862592
    9       28.837807
 
 -0.6250000E-01  0.4375000E+00  0.6250000E-01  0.2343750E-01
    1        5.417413
    2        7.498227
    3        8.005458
    4        9.249837
    5       10.729512
    6       12.936466
    7       19.609105
    8       27.867199
    9       30.900297
 
 -0.4375000E+00 -0.4375000E+00  0.6250000E-01  0.1171875E-01
    1        5.030795
    2        5.340695
    3       10.740619
    4       10.825488
    5       11.168848
    6       14.446658
    7       22.604466
    8       24.030453
    9       24.749989
 
 -0.3125000E+00 -0.4375000E+00  0.6250000E-01  0.2343750E-01
    1        5.462080
    2        5.740805
    3        9.347845
    4       10.308804
    5       10.920822
    6       14.164895
    7       23.449712
    8       24.646999
    9       25.435716
 
 -0.1875000E+00 -0.4375000E+00  0.6250000E-01  0.2343750E-01
    1        5.908063
    2        6.852009
    3        7.964374
    4        8.999887
    5       10.831640
    6       13.917802
    7       21.233187
    8       27.287243
    9       27.970785
 
 -0.3125000E+00 -0.3125000E+00  0.6250000E-01  0.1171875E-01
    1        5.525026
    2        5.790425
    3        9.632704
    4        9.994142
    5       10.676778
    6       11.328621
    7       26.096028
    8       26.966276
    9       27.005694
 
 -0.1875000E+00 -0.3125000E+00  0.6250000E-01  0.2343750E-01
    1        5.911031
    2        6.408972
    3        8.117580
    4        9.267311
    5       10.080021
    6       11.142615
    7       26.005667
    8       28.062870
    9       29.514805
 
 -0.1875000E+00 -0.1875000E+00  0.6250000E-01  0.1171875E-01
    1        5.290943
    2        6.660599
    3        8.427175
    4        8.802476
    5        9.215856
    6       10.080912
    7       28.862202
    8       30.264351
    9       30.773537
 
  0.1875000E+00  0.1875000E+00  0.1875000E+00  0.3906250E-02
    1        4.433445
    2        7.487977
    3        8.075721
    4        8.075721
    5        9.497010
    6        9.497010
    7       28.053348
    8       29.448460
    9       34.723770
 
  0.3125000E+00  0.1875000E+00  0.1875000E+00  0.1171875E-01
    1        5.307067
    2        7.159663
    3        8.102839
    4        8.423000
    5        9.026989
    6       10.435858
    7       26.955876
    8       28.800279
    9       32.994116
 
  0.4375000E+00  0.1875000E+00  0.1875000E+00  0.1171875E-01
    1        6.223151
    2        7.200904
    3        7.736417
    4        8.613555
    5        9.305673
    6       12.184457
    7       24.346584
    8       26.614629
    9       31.224149
 
 -0.4375000E+00  0.1875000E+00  0.1875000E+00  0.1171875E-01
    1        5.948190
    2        7.183968
    3        8.415668
    4        8.435341
    5       10.354226
    6       14.510359
    7       19.905886
    8       26.499949
    9       30.215484
 
 -0.3125000E+00  0.1875000E+00  0.1875000E+00  0.1171875E-01
    1        5.770906
    2        7.105890
    3        8.319666
    4        8.537975
    5       10.943243
    6       14.308368
    7       19.687011
    8       27.402871
    9       29.899744
 
 -0.1875000E+00  0.1875000E+00  0.1875000E+00  0.1171875E-01
    1        5.809820
    2        6.863357
    3        7.945950
    4        8.793827
    5       10.676317
    6       11.284652
    7       24.166201
    8       28.940083
    9       29.742024
 
  0.3125000E+00  0.3125000E+00  0.1875000E+00  0.1171875E-01
    1        5.510162
    2        7.199033
    3        7.949381
    4        8.427150
    5       10.049106
    6       10.292404
    7       25.497762
    8       29.489635
    9       31.718245
 
  0.4375000E+00  0.3125000E+00  0.1875000E+00  0.2343750E-01
    1        6.236314
    2        6.846973
    3        7.525542
    4        9.134207
    5        9.825242
    6       12.236621
    7       24.460217
    8       26.740842
    9       29.698928
 
 -0.4375000E+00  0.3125000E+00  0.1875000E+00  0.2343750E-01
    1        6.625152
    2        6.797045
    3        7.297282
    4        9.279328
    5       10.279894
    6       14.960290
    7       21.944513
    8       24.356008
    9       27.926056
 
 -0.3125000E+00  0.3125000E+00  0.1875000E+00  0.2343750E-01
    1        6.291124
    2        6.683479
    3        7.776701
    4        9.166932
    5       10.767663
    6       16.994964
    7       19.089510
    8       25.469848
    9       26.293371
 
 -0.1875000E+00  0.3125000E+00  0.1875000E+00  0.2343750E-01
    1        6.147082
    2        6.488761
    3        7.785267
    4        9.630156
    5       10.379173
    6       13.705097
    7       23.239379
    8       25.551154
    9       27.366780
 
  0.4375000E+00  0.4375000E+00  0.1875000E+00  0.1171875E-01
    1        5.755501
    2        6.410843
    3        8.411767
    4        9.258376
    5       10.941137
    6       12.973689
    7       22.824450
    8       27.140492
    9       28.070261
 
 -0.4375000E+00  0.4375000E+00  0.1875000E+00  0.2343750E-01
    1        5.884541
    2        6.196602
    3        8.277295
    4        9.921974
    5       10.831082
    6       15.545914
    7       22.202035
    8       24.456781
    9       25.016356
 
 -0.3125000E+00  0.4375000E+00  0.1875000E+00  0.2343750E-01
    1        6.089149
    2        6.730625
    3        7.610298
    4        9.496194
    5       11.133183
    6       18.904464
    7       20.368785
    8       22.598905
    9       23.682587
 
 -0.1875000E+00  0.4375000E+00  0.1875000E+00  0.2343750E-01
    1        6.321417
    2        6.740518
    3        7.436523
    4        9.480917
    5       10.792919
    6       16.891564
    7       20.963087
    8       23.610753
    9       25.387404
 
 -0.4375000E+00 -0.4375000E+00  0.1875000E+00  0.1171875E-01
    1        5.418408
    2        5.888861
    3        9.350938
    4       10.141001
    5       10.966377
    6       16.636392
    7       21.011007
    8       22.719211
    9       26.248178
 
 -0.3125000E+00 -0.4375000E+00  0.1875000E+00  0.2343750E-01
    1        5.688116
    2        6.069767
    3        8.661270
    4        9.946756
    5       11.135668
    6       17.282833
    7       21.559572
    8       22.690958
    9       24.208490
 
 -0.3125000E+00 -0.3125000E+00  0.1875000E+00  0.1171875E-01
    1        5.565329
    2        6.059120
    3        8.980193
    4        9.753153
    5       11.029648
    6       14.923489
    7       21.683549
    8       24.732064
    9       26.872306
 
  0.3125000E+00  0.3125000E+00  0.3125000E+00  0.3906250E-02
    1        5.214417
    2        7.973197
    3        7.973198
    4        8.554658
    5       10.076119
    6       10.076119
    7       23.660441
    8       28.721496
    9       34.893123
 
  0.4375000E+00  0.3125000E+00  0.3125000E+00  0.1171875E-01
    1        5.658820
    2        7.642678
    3        8.179312
    4        8.351358
    5        9.872353
    6       11.974944
    7       22.418412
    8       28.042399
    9       31.013963
 
 -0.4375000E+00  0.3125000E+00  0.3125000E+00  0.1171875E-01
    1        6.445715
    2        7.145464
    3        7.631482
    4        8.855823
    5        9.921450
    6       14.688776
    7       21.859759
    8       24.234740
    9       30.669850
 
 -0.3125000E+00  0.3125000E+00  0.3125000E+00  0.1171875E-01
    1        5.964081
    2        6.756806
    3        8.119023
    4        9.403154
    5       10.520553
    6       17.660889
    7       19.354834
    8       22.949861
    9       28.805031
 
  0.4375000E+00  0.4375000E+00  0.3125000E+00  0.1171875E-01
    1        5.524661
    2        7.486774
    3        8.186694
    4        8.565941
    5       10.862990
    6       12.312993
    7       20.860958
    8       28.220537
    9       31.108457
 
 -0.4375000E+00  0.4375000E+00  0.3125000E+00  0.2343750E-01
    1        6.109456
    2        6.940842
    3        7.977797
    4        8.806536
    5       10.629506
    6       14.969238
    7       19.943151
    8       26.753072
    9       27.989005
 
 -0.3125000E+00  0.4375000E+00  0.3125000E+00  0.2343750E-01
    1        6.213333
    2        6.775680
    3        7.631608
    4        9.395893
    5       10.793191
    6       18.139746
    7       19.611457
    8       23.004714
    9       26.062655
 
 -0.4375000E+00 -0.4375000E+00  0.3125000E+00  0.1171875E-01
    1        5.938416
    2        6.833404
    3        8.177359
    4        8.989527
    5       10.788503
    6       16.453022
    7       18.871403
    8       25.272951
    9       29.151446
 
  0.4375000E+00  0.4375000E+00  0.4375000E+00  0.3906250E-02
    1        5.118653
    2        7.738539
    3        7.738539
    4       10.771726
    5       10.771726
    6       11.135787
    7       19.554328
    8       27.622348
    9       32.908979
 
 -0.4375000E+00  0.4375000E+00  0.4375000E+00  0.1171875E-01
    1        5.482144
    2        7.399952
    3        8.044721
    4        9.262478
    5       10.732557
    6       13.828976
    7       18.830987
    8       27.680216
    9       30.619895
