       N       E                     dE             d eps       ncg     rms          rms(c)
DAV:   1     0.275849266028E+02    0.27585E+02   -0.41845E+03  1104   0.746E+02
DAV:   2    -0.514343221378E+01   -0.32728E+02   -0.31966E+02  1180   0.161E+02
DAV:   3    -0.541012118463E+01   -0.26669E+00   -0.26440E+00  1255   0.166E+01
DAV:   4    -0.541142521371E+01   -0.13040E-02   -0.13039E-02  1274   0.108E+00
DAV:   5    -0.541144007424E+01   -0.14861E-04   -0.14861E-04  1278   0.989E-02    0.932E+00
DAV:   6    -0.514472262515E+01    0.26672E+00   -0.10761E+00  1102   0.998E+00    0.465E+00
DAV:   7    -0.512901986999E+01    0.15703E-01   -0.15380E-02  1268   0.108E+00    0.227E+00
DAV:   8    -0.512452451367E+01    0.44954E-02   -0.12586E-03  1204   0.320E-01    0.839E-02
DAV:   9    -0.512452313241E+01    0.13813E-05   -0.58848E-06   628   0.266E-02
   1 F= -.51245231E+01 E0= -.51232372E+01  d E =-.512452E+01
