 vasp.5.3.5 31Mar14 (build Jan 09 2015 16:57:47) complex                        
  
 executed on             LinuxIFC date 2015.03.24  14:25:57
 serial version


--------------------------------------------------------------------------------------------------------


 INCAR:
 POTCAR:    PAW_PBE Pd 04Jan2005                  
 POTCAR:    PAW_PBE Pd 04Jan2005                  
   VRHFIN =Pd : s1 d9                                                           
   LEXCH  = PE                                                                  
   EATOM  =   809.7530 eV,   59.5152 Ry                                         
                                                                                
   TITEL  = PAW_PBE Pd 04Jan2005                                                
   LULTRA =        F    use ultrasoft PP ?                                      
   IUNSCR =        1    unscreen: 0-lin 1-nonlin 2-no                           
   RPACOR =    2.000    partial core radius                                     
   POMASS =  106.420; ZVAL   =   10.000    mass and valenz                      
   RCORE  =    2.600    outmost cutoff radius                                   
   RWIGS  =    2.710; RWIGS  =    1.434    wigner-seitz radius (au A)           
   ENMAX  =  250.925; ENMIN  =  188.194 eV                                      
   ICORE  =        3    local potential                                         
   LCOR   =        T    correct aug charges                                     
   LPAW   =        T    paw PP                                                  
   EAUG   =  416.230                                                            
   DEXC   =    0.000                                                            
   RMAX   =    2.653    core radius for proj-oper                               
   RAUG   =    1.300    factor for augmentation sphere                          
   RDEP   =    2.734    radius for radial grids                                 
   RDEPT  =    2.103    core radius for aug-charge                              
                                                                                
   Atomic configuration                                                         
   12 entries                                                                   
     n  l   j            E        occ.                                          
     1  0  0.50    -24164.6631   2.0000                                         
     2  0  0.50     -3530.9218   2.0000                                         
     2  1  1.50     -3165.6822   6.0000                                         
     3  0  0.50      -639.4577   2.0000                                         
     3  1  1.50      -519.4532   6.0000                                         
     3  2  2.50      -328.9757  10.0000                                         
     4  0  0.50       -88.7014   2.0000                                         
     4  1  1.50       -54.4540   6.0000                                         
     4  2  2.50        -6.6878   9.0000                                         
     5  0  0.50        -4.3543   1.0000                                         
     5  1  0.50        -1.3606   0.0000                                         
     4  3  2.50        -1.3606   0.0000                                         
   Description                                                                  
     l       E           TYP  RCUT    TYP  RCUT                                 
     2     -6.6878251     23  2.400                                             
     2     -8.0484077     23  2.400                                             
     0     -4.3542939     23  2.400                                             
     0      4.3406793     23  2.400                                             
     1     -4.0817478     23  2.600                                             
     1     15.8380318     23  2.600                                             
     3     -4.0817478     23  2.400                                             
  local pseudopotential read in
  partial core-charges read in
  partial kinetic energy density read in
  atomic valenz-charges read in
  non local Contribution for L=           2  read in
    real space projection operators read in
  non local Contribution for L=           2  read in
    real space projection operators read in
  non local Contribution for L=           0  read in
    real space projection operators read in
  non local Contribution for L=           0  read in
    real space projection operators read in
  non local Contribution for L=           1  read in
    real space projection operators read in
  non local Contribution for L=           1  read in
    real space projection operators read in
    PAW grid and wavefunctions read in
 
   number of l-projection  operators is LMAX  =           6
   number of lm-projection operators is LMMAX =          18
 
  PAW_PBE Pd 04Jan2005                  :
 energy of atom  1       EATOM= -809.7530
 kinetic energy error for atom=    0.0269 (will be added to EATOM!!)
 
 
 POSCAR: Pd                                      
  positions in cartesian coordinates
  No initial velocities read in
 exchange correlation table for  LEXCH =        8
   RHO(1)=    0.500       N(1)  =     2000
   RHO(2)=  100.500       N(2)  =     4000

 VTST: version 3.1, (03/28/14)

 CHAIN: initializing optimizer
 
 OPT: Using VASP Conjugate-Gradient optimizer
 CHAIN: Read ICHAIN            0
 
 POSCAR: Pd                                      
  positions in cartesian coordinates
  No initial velocities read in
 


--------------------------------------------------------------------------------------------------------


 ion  position               nearest neighbor table
   1  0.000  0.000  0.000-
 
  LATTYP: Found a face centered cubic cell.
 ALAT       =     3.8122000000
  
  Lattice vectors:
  
 A1 = (   2.6956324712,   0.0000000000,   0.0000000000)
 A2 = (   1.3478162356,   2.3344861994,   0.0000000000)
 A3 = (   1.3478162356,   0.7781620665,   2.2009746962)


Analysis of symmetry for initial positions (statically):
=====================================================================
 Subroutine PRICEL returns:
 Original cell was already a primitive cell.
 

 Routine SETGRP: Setting up the symmetry group for a 
 face centered cubic supercell.


 Subroutine GETGRP returns: Found 48 space group operations
 (whereof 48 operations were pure point group operations)
 out of a pool of 48 trial point group operations.


The static configuration has the point symmetry O_h .


Analysis of symmetry for dynamics (positions and initial velocities):
=====================================================================
 Subroutine PRICEL returns:
 Original cell was already a primitive cell.
 

 Routine SETGRP: Setting up the symmetry group for a 
 face centered cubic supercell.


 Subroutine GETGRP returns: Found 48 space group operations
 (whereof 48 operations were pure point group operations)
 out of a pool of 48 trial point group operations.


The dynamic configuration has the point symmetry O_h .
 
 
 KPOINTS: KPOINTS created by Atomic Simulation Env

Automatic generation of k-mesh.
Space group operators:
 irot       det(A)        alpha          n_x          n_y          n_z        tau_x        tau_y        tau_z
    1     1.000000     0.000000     1.000000     0.000000     0.000000     0.000000     0.000000     0.000000
    2    -1.000000     0.000000     1.000000     0.000000     0.000000     0.000000     0.000000     0.000000
    3     1.000000   120.000000    -0.816497    -0.471405    -0.333333     0.000000     0.000000     0.000000
    4    -1.000000   120.000000    -0.816497    -0.471405    -0.333333     0.000000     0.000000     0.000000
    5     1.000000   120.000000     0.816497     0.471405     0.333333     0.000000     0.000000     0.000000
    6    -1.000000   120.000000     0.816497     0.471405     0.333333     0.000000     0.000000     0.000000
    7     1.000000    90.000000    -0.707107    -0.408248     0.577350     0.000000     0.000000     0.000000
    8    -1.000000    90.000000    -0.707107    -0.408248     0.577350     0.000000     0.000000     0.000000
    9     1.000000   179.999999     1.000000     0.000000     0.000000     0.000000     0.000000     0.000000
   10    -1.000000   179.999999     1.000000     0.000000     0.000000     0.000000     0.000000     0.000000
   11     1.000000    90.000000     0.707107    -0.408248     0.577350     0.000000     0.000000     0.000000
   12    -1.000000    90.000000     0.707107    -0.408248     0.577350     0.000000     0.000000     0.000000
   13     1.000000   180.000000     0.707107     0.408248    -0.577350     0.000000     0.000000     0.000000
   14    -1.000000   180.000000     0.707107     0.408248    -0.577350     0.000000     0.000000     0.000000
   15     1.000000   120.000000     0.816497    -0.471405    -0.333333     0.000000     0.000000     0.000000
   16    -1.000000   120.000000     0.816497    -0.471405    -0.333333     0.000000     0.000000     0.000000
   17     1.000000   120.000000     0.000000    -0.942809     0.333333     0.000000     0.000000     0.000000
   18    -1.000000   120.000000     0.000000    -0.942809     0.333333     0.000000     0.000000     0.000000
   19     1.000000    90.000000     0.707107     0.408248    -0.577350     0.000000     0.000000     0.000000
   20    -1.000000    90.000000     0.707107     0.408248    -0.577350     0.000000     0.000000     0.000000
   21     1.000000    90.000000     0.000000    -0.816497    -0.577350     0.000000     0.000000     0.000000
   22    -1.000000    90.000000     0.000000    -0.816497    -0.577350     0.000000     0.000000     0.000000
   23     1.000000   180.000000     0.500000     0.866025     0.000000     0.000000     0.000000     0.000000
   24    -1.000000   180.000000     0.500000     0.866025     0.000000     0.000000     0.000000     0.000000
   25     1.000000   120.000000     0.000000     0.942809    -0.333333     0.000000     0.000000     0.000000
   26    -1.000000   120.000000     0.000000     0.942809    -0.333333     0.000000     0.000000     0.000000
   27     1.000000   120.000000     0.000000     0.000000    -1.000000     0.000000     0.000000     0.000000
   28    -1.000000   120.000000     0.000000     0.000000    -1.000000     0.000000     0.000000     0.000000
   29     1.000000   179.999999     0.000000    -0.816497    -0.577350     0.000000     0.000000     0.000000
   30    -1.000000   179.999999     0.000000    -0.816497    -0.577350     0.000000     0.000000     0.000000
   31     1.000000    90.000000    -0.707107     0.408248    -0.577350     0.000000     0.000000     0.000000
   32    -1.000000    90.000000    -0.707107     0.408248    -0.577350     0.000000     0.000000     0.000000
   33     1.000000   180.000000     0.500000     0.288675     0.816497     0.000000     0.000000     0.000000
   34    -1.000000   180.000000     0.500000     0.288675     0.816497     0.000000     0.000000     0.000000
   35     1.000000    90.000000     0.000000     0.816497     0.577350     0.000000     0.000000     0.000000
   36    -1.000000    90.000000     0.000000     0.816497     0.577350     0.000000     0.000000     0.000000
   37     1.000000   120.000000    -0.816497     0.471405     0.333333     0.000000     0.000000     0.000000
   38    -1.000000   120.000000    -0.816497     0.471405     0.333333     0.000000     0.000000     0.000000
   39     1.000000   179.999999    -0.707107     0.408248    -0.577350     0.000000     0.000000     0.000000
   40    -1.000000   179.999999    -0.707107     0.408248    -0.577350     0.000000     0.000000     0.000000
   41     1.000000   120.000000     0.000000     0.000000     1.000000     0.000000     0.000000     0.000000
   42    -1.000000   120.000000     0.000000     0.000000     1.000000     0.000000     0.000000     0.000000
   43     1.000000   180.000000     0.000000    -0.577350     0.816497     0.000000     0.000000     0.000000
   44    -1.000000   180.000000     0.000000    -0.577350     0.816497     0.000000     0.000000     0.000000
   45     1.000000   180.000000     0.500000    -0.866025     0.000000     0.000000     0.000000     0.000000
   46    -1.000000   180.000000     0.500000    -0.866025     0.000000     0.000000     0.000000     0.000000
   47     1.000000   179.999999    -0.500000     0.288675     0.816497     0.000000     0.000000     0.000000
   48    -1.000000   179.999999    -0.500000     0.288675     0.816497     0.000000     0.000000     0.000000
 
 Subroutine IBZKPT returns following result:
 ===========================================
 
 Found     60 irreducible k-points:
 
 Following reciprocal coordinates:
            Coordinates               Weight
  0.062500  0.062500  0.062500     96.000000
  0.187500  0.062500  0.062500    288.000000
  0.312500  0.062500  0.062500    288.000000
  0.437500  0.062500  0.062500    288.000000
 -0.437500  0.062500  0.062500    288.000000
 -0.312500  0.062500  0.062500    288.000000
 -0.187500  0.062500  0.062500    288.000000
 -0.062500  0.062500  0.062500    288.000000
  0.187500  0.187500  0.062500    288.000000
  0.312500  0.187500  0.062500    576.000000
  0.437500  0.187500  0.062500    576.000000
 -0.437500  0.187500  0.062500    576.000000
 -0.312500  0.187500  0.062500    576.000000
 -0.187500  0.187500  0.062500    576.000000
 -0.062500  0.187500  0.062500    576.000000
  0.312500  0.312500  0.062500    288.000000
  0.437500  0.312500  0.062500    576.000000
 -0.437500  0.312500  0.062500    576.000000
 -0.312500  0.312500  0.062500    576.000000
 -0.187500  0.312500  0.062500    576.000000
 -0.062500  0.312500  0.062500    576.000000
  0.437500  0.437500  0.062500    288.000000
 -0.437500  0.437500  0.062500    576.000000
 -0.312500  0.437500  0.062500    576.000000
 -0.187500  0.437500  0.062500    576.000000
 -0.062500  0.437500  0.062500    576.000000
 -0.437500 -0.437500  0.062500    288.000000
 -0.312500 -0.437500  0.062500    576.000000
 -0.187500 -0.437500  0.062500    576.000000
 -0.312500 -0.312500  0.062500    288.000000
 -0.187500 -0.312500  0.062500    576.000000
 -0.187500 -0.187500  0.062500    288.000000
  0.187500  0.187500  0.187500     96.000000
  0.312500  0.187500  0.187500    288.000000
  0.437500  0.187500  0.187500    288.000000
 -0.437500  0.187500  0.187500    288.000000
 -0.312500  0.187500  0.187500    288.000000
 -0.187500  0.187500  0.187500    288.000000
  0.312500  0.312500  0.187500    288.000000
  0.437500  0.312500  0.187500    576.000000
 -0.437500  0.312500  0.187500    576.000000
 -0.312500  0.312500  0.187500    576.000000
 -0.187500  0.312500  0.187500    576.000000
  0.437500  0.437500  0.187500    288.000000
 -0.437500  0.437500  0.187500    576.000000
 -0.312500  0.437500  0.187500    576.000000
 -0.187500  0.437500  0.187500    576.000000
 -0.437500 -0.437500  0.187500    288.000000
 -0.312500 -0.437500  0.187500    576.000000
 -0.312500 -0.312500  0.187500    288.000000
  0.312500  0.312500  0.312500     96.000000
  0.437500  0.312500  0.312500    288.000000
 -0.437500  0.312500  0.312500    288.000000
 -0.312500  0.312500  0.312500    288.000000
  0.437500  0.437500  0.312500    288.000000
 -0.437500  0.437500  0.312500    576.000000
 -0.312500  0.437500  0.312500    576.000000
 -0.437500 -0.437500  0.312500    288.000000
  0.437500  0.437500  0.437500     96.000000
 -0.437500  0.437500  0.437500    288.000000
 
 Following cartesian coordinates:
            Coordinates               Weight
  0.023186  0.013386  0.009466     96.000000
  0.069557 -0.013386 -0.009466    288.000000
  0.115928 -0.040159 -0.028397    288.000000
  0.162300 -0.066931 -0.047328    288.000000
 -0.162300  0.120476  0.085190    288.000000
 -0.115928  0.093704  0.066259    288.000000
 -0.069557  0.066931  0.047328    288.000000
 -0.023186  0.040159  0.028397    288.000000
  0.069557  0.040159 -0.028397    288.000000
  0.115928  0.013386 -0.047328    576.000000
  0.162300 -0.013386 -0.066259    576.000000
 -0.162300  0.174021  0.066259    576.000000
 -0.115928  0.147249  0.047328    576.000000
 -0.069557  0.120476  0.028397    576.000000
 -0.023186  0.093704  0.009466    576.000000
  0.115928  0.066931 -0.066259    288.000000
  0.162300  0.040159 -0.085190    576.000000
 -0.162300  0.227566  0.047328    576.000000
 -0.115928  0.200794  0.028397    576.000000
 -0.069557  0.174021  0.009466    576.000000
 -0.023186  0.147249 -0.009466    576.000000
  0.162300  0.093704 -0.104121    288.000000
 -0.162300  0.281111  0.028397    576.000000
 -0.115928  0.254339  0.009466    576.000000
 -0.069557  0.227566 -0.009466    576.000000
 -0.023186  0.200794 -0.028397    576.000000
 -0.162300 -0.093704  0.160914    288.000000
 -0.115928 -0.120476  0.141983    576.000000
 -0.069557 -0.147249  0.123052    576.000000
 -0.115928 -0.066931  0.123052    288.000000
 -0.069557 -0.093704  0.104121    576.000000
 -0.069557 -0.040159  0.085190    288.000000
  0.069557  0.040159  0.028397     96.000000
  0.115928  0.013386  0.009466    288.000000
  0.162300 -0.013386 -0.009466    288.000000
 -0.162300  0.174021  0.123052    288.000000
 -0.115928  0.147249  0.104121    288.000000
 -0.069557  0.120476  0.085190    288.000000
  0.115928  0.066931 -0.009466    288.000000
  0.162300  0.040159 -0.028397    576.000000
 -0.162300  0.227566  0.104121    576.000000
 -0.115928  0.200794  0.085190    576.000000
 -0.069557  0.174021  0.066259    576.000000
  0.162300  0.093704 -0.047328    288.000000
 -0.162300  0.281111  0.085190    576.000000
 -0.115928  0.254339  0.066259    576.000000
 -0.069557  0.227566  0.047328    576.000000
 -0.162300 -0.093704  0.217707    288.000000
 -0.115928 -0.120476  0.198776    576.000000
 -0.115928 -0.066931  0.179845    288.000000
  0.115928  0.066931  0.047328     96.000000
  0.162300  0.040159  0.028397    288.000000
 -0.162300  0.227566  0.160914    288.000000
 -0.115928  0.200794  0.141983    288.000000
  0.162300  0.093704  0.009466    288.000000
 -0.162300  0.281111  0.141983    576.000000
 -0.115928  0.254339  0.123052    576.000000
 -0.162300 -0.093704  0.274500    288.000000
  0.162300  0.093704  0.066259     96.000000
 -0.162300  0.281111  0.198776    288.000000
 


--------------------------------------------------------------------------------------------------------




 Dimension of arrays:
   k-points           NKPTS =     60   k-points in BZ     NKDIM =     60   number of bands    NBANDS=      9
   number of dos      NEDOS =    301   number of ions     NIONS =      1
   non local maximal  LDIM  =      6   non local SUM 2l+1 LMDIM =     18
   total plane-waves  NPLWV =   1728
   max r-space proj   IRMAX =      1   max aug-charges    IRDMAX=   6251
   dimension x,y,z NGX =    12 NGY =   12 NGZ =   12
   dimension x,y,z NGXF=    24 NGYF=   24 NGZF=   24
   support grid    NGXF=    24 NGYF=   24 NGZF=   24
   ions per type =               1
 NGX,Y,Z   is equivalent  to a cutoff of   7.40,  7.40,  7.40 a.u.
 NGXF,Y,Z  is equivalent  to a cutoff of  14.80, 14.80, 14.80 a.u.


 I would recommend the setting:
   dimension x,y,z NGX =    12 NGY =   12 NGZ =   12
 SYSTEM =  unknown system                          
 POSCAR =  Pd                                      

 Startparameter for this run:
   NWRITE =      2    write-flag & timer
   PREC   = normal    normal or accurate (medium, high low for compatibility)
   ISTART =      0    job   : 0-new  1-cont  2-samecut
   ICHARG =      2    charge: 1-file 2-atom 10-const
   ISPIN  =      1    spin polarized calculation?
   LNONCOLLINEAR =      F non collinear calculations
   LSORBIT =      F    spin-orbit coupling
   INIWAV =      1    electr: 0-lowe 1-rand  2-diag
   LASPH  =      F    aspherical Exc in radial PAW
   METAGGA=      F    non-selfconsistent MetaGGA calc.

 Electronic Relaxation 1
   ENCUT  =  350.0 eV  25.72 Ry    5.07 a.u.   4.11  4.11  4.11*2*pi/ulx,y,z
   ENINI  =  350.0     initial cutoff
   ENAUG  =  416.2 eV  augmentation charge cutoff
   NELM   =     60;   NELMIN=  2; NELMDL= -5     # of ELM steps 
   EDIFF  = 0.1E-03   stopping-criterion for ELM
   LREAL  =      F    real-space projection
   NLSPLINE    = F    spline interpolate recip. space projectors
   LCOMPAT=      F    compatible to vasp.4.4
   GGA_COMPAT  = T    GGA compatible to vasp.4.4-vasp.4.6
   LMAXPAW     = -100 max onsite density
   LMAXMIX     =    2 max onsite mixed and CHGCAR
   VOSKOWN=      0    Vosko Wilk Nusair interpolation
   ROPT   =    0.00000
 Ionic relaxation
   EDIFFG = 0.1E-02   stopping-criterion for IOM
   NSW    =     30    number of steps for IOM
   NBLOCK =      1;   KBLOCK =     30    inner block; outer block 
   IBRION =      2    ionic relax: 0-MD 1-quasi-New 2-CG
   NFREE  =      1    steps in history (QN), initial steepest desc. (CG)
   ISIF   =      2    stress and relaxation
   IWAVPR =     11    prediction:  0-non 1-charg 2-wave 3-comb
   ISYM   =      2    0-nonsym 1-usesym 2-fastsym
   LCORR  =      T    Harris-Foulkes like correction to forces

   POTIM  = 0.5000    time-step for ionic-motion
   TEIN   =    0.0    initial temperature
   TEBEG  =    0.0;   TEEND  =   0.0 temperature during run
   SMASS  =  -3.00    Nose mass-parameter (am)
   estimated Nose-frequenzy (Omega)   =  0.10E-29 period in steps =****** mass=  -0.166E-27a.u.
   SCALEE = 1.0000    scale energy and forces
   NPACO  =    256;   APACO  = 16.0  distance and # of slots for P.C.
   PSTRESS=    0.0 pullay stress

  Mass of Ions in am
   POMASS = 106.42
  Ionic Valenz
   ZVAL   =  10.00
  Atomic Wigner-Seitz radii
   RWIGS  =  -1.00
  virtual crystal weights 
   VCA    =   1.00
   NELECT =      10.0000    total number of electrons
   NUPDOWN=      -1.0000    fix difference up-down

 DOS related values:
   EMIN   =  10.00;   EMAX   =-10.00  energy-range for DOS
   EFERMI =   0.00
   ISMEAR =     1;   SIGMA  =   0.20  broadening in eV -4-tet -1-fermi 0-gaus

 Electronic relaxation 2 (details)
   IALGO  =     38    algorithm
   LDIAG  =      T    sub-space diagonalisation (order eigenvalues)
   LSUBROT=      F    optimize rotation matrix (better conditioning)
   TURBO    =      0    0=normal 1=particle mesh
   IRESTART =      0    0=no restart 2=restart with 2 vectors
   NREBOOT  =      0    no. of reboots
   NMIN     =      0    reboot dimension
   EREF     =   0.00    reference energy to select bands
   IMIX   =      4    mixing-type and parameters
     AMIX     =   0.40;   BMIX     =  1.00
     AMIX_MAG =   1.60;   BMIX_MAG =  1.00
     AMIN     =   0.10
     WC   =   100.;   INIMIX=   1;  MIXPRE=   1;  MAXMIX= -45

 Intra band minimization:
   WEIMIN = 0.0010     energy-eigenvalue tresh-hold
   EBREAK =  0.28E-05  absolut break condition
   DEPER  =   0.30     relativ break condition  

   TIME   =   0.40     timestep for ELM

  volume/ion in A,a.u.               =      13.85        93.47
  Fermi-wavevector in a.u.,A,eV,Ry     =   1.468653  2.775351 29.346966  2.156941
  Thomas-Fermi vector in A             =   2.584125
 
 Write flags
   LWAVE  =      T    write WAVECAR
   LCHARG =      T    write CHGCAR
   LVTOT  =      F    write LOCPOT, total local potential
   LVHAR  =      F    write LOCPOT, Hartree potential only
   LELF   =      F    write electronic localiz. function (ELF)
   LORBIT =      0    0 simple, 1 ext, 2 COOP (PROOUT)


 Dipole corrections
   LMONO  =      F    monopole corrections only (constant potential shift)
   LDIPOL =      F    correct potential (dipole corrections)
   IDIPOL =      0    1-x, 2-y, 3-z, 4-all directions 
   EPSILON=  1.0000000 bulk dielectric constant

 Exchange correlation treatment:
   GGA     =    --    GGA type
   LEXCH   =     8    internal setting for exchange type
   VOSKOWN=      0    Vosko Wilk Nusair interpolation
   LHFCALC =     F    Hartree Fock is set to
   LHFONE  =     F    Hartree Fock one center treatment
   AEXX    =    0.0000 exact exchange contribution

 Linear response parameters
   LEPSILON=     F    determine dielectric tensor
   LRPA    =     F    only Hartree local field effects (RPA)
   LNABLA  =     F    use nabla operator in PAW spheres
   LVEL    =     F    velocity operator in full k-point grid
   LINTERFAST=   F  fast interpolation
   KINTER  =     0    interpolate to denser k-point grid
   CSHIFT  =0.1000    complex shift for real part using Kramers Kronig
   OMEGAMAX=  -1.0    maximum frequency
   DEG_THRESHOLD= 0.2000000E-02 threshold for treating states as degnerate
   RTIME   =    0.100 relaxation time in fs

 Orbital magnetization related:
   ORBITALMAG=     F  switch on orbital magnetization
   LCHIMAG   =     F  perturbation theory with respect to B field
   DQ        =  0.001000  dq finite difference perturbation B field



--------------------------------------------------------------------------------------------------------


 conjugate gradient relaxation of ions
 charge density and potential will be updated during run
 non-spin polarized calculation
 Variant of blocked Davidson
 Davidson routine will perform the subspace rotation
 perform sub-space diagonalisation
    after iterative eigenvector-optimisation
 modified Broyden-mixing scheme, WC =      100.0
 initial mixing is a Kerker type mixing with AMIX =  0.4000 and BMIX =      1.0000
 Hartree-type preconditioning will be used
 using additional bands            4
 reciprocal scheme for non local part
 use partial core corrections
 calculate Harris-corrections to forces 
   (improved forces if not selfconsistent)
 use gradient corrections 
 use of overlap-Matrix (Vanderbilt PP)
 Methfessel and Paxton  Order N= 1 SIGMA  =   0.20


--------------------------------------------------------------------------------------------------------


  energy-cutoff  :      350.00
  volume of cell :       13.85
      direct lattice vectors                 reciprocal lattice vectors
     2.695632471  0.000000000  0.000000000     0.370970453 -0.214179891 -0.151448053
     1.347816236  2.334486199  0.000000000     0.000000000  0.428359782 -0.151448053
     1.347816236  0.778162066  2.200974696     0.000000000  0.000000000  0.454344160

  length of vectors
     2.695632471  2.695632471  2.695632471     0.454344160  0.454344160  0.454344160


 
 k-points in units of 2pi/SCALE and weight: KPOINTS created by Atomic Simulation Env
   0.02318565  0.01338624  0.00946550       0.004
   0.06955696 -0.01338624 -0.00946550       0.012
   0.11592827 -0.04015873 -0.02839651       0.012
   0.16229957 -0.06693122 -0.04732752       0.012
  -0.16229957  0.12047619  0.08518953       0.012
  -0.11592827  0.09370370  0.06625852       0.012
  -0.06955696  0.06693122  0.04732752       0.012
  -0.02318565  0.04015873  0.02839651       0.012
   0.06955696  0.04015873 -0.02839651       0.012
   0.11592827  0.01338624 -0.04732752       0.023
   0.16229957 -0.01338624 -0.06625852       0.023
  -0.16229957  0.17402116  0.06625852       0.023
  -0.11592827  0.14724868  0.04732752       0.023
  -0.06955696  0.12047619  0.02839651       0.023
  -0.02318565  0.09370370  0.00946550       0.023
   0.11592827  0.06693122 -0.06625852       0.012
   0.16229957  0.04015873 -0.08518953       0.023
  -0.16229957  0.22756613  0.04732752       0.023
  -0.11592827  0.20079365  0.02839651       0.023
  -0.06955696  0.17402116  0.00946550       0.023
  -0.02318565  0.14724868 -0.00946550       0.023
   0.16229957  0.09370370 -0.10412054       0.012
  -0.16229957  0.28111111  0.02839651       0.023
  -0.11592827  0.25433862  0.00946550       0.023
  -0.06955696  0.22756613 -0.00946550       0.023
  -0.02318565  0.20079365 -0.02839651       0.023
  -0.16229957 -0.09370370  0.16091356       0.012
  -0.11592827 -0.12047619  0.14198255       0.023
  -0.06955696 -0.14724868  0.12305154       0.023
  -0.11592827 -0.06693122  0.12305154       0.012
  -0.06955696 -0.09370370  0.10412054       0.023
  -0.06955696 -0.04015873  0.08518953       0.012
   0.06955696  0.04015873  0.02839651       0.004
   0.11592827  0.01338624  0.00946550       0.012
   0.16229957 -0.01338624 -0.00946550       0.012
  -0.16229957  0.17402116  0.12305154       0.012
  -0.11592827  0.14724868  0.10412054       0.012
  -0.06955696  0.12047619  0.08518953       0.012
   0.11592827  0.06693122 -0.00946550       0.012
   0.16229957  0.04015873 -0.02839651       0.023
  -0.16229957  0.22756613  0.10412054       0.023
  -0.11592827  0.20079365  0.08518953       0.023
  -0.06955696  0.17402116  0.06625852       0.023
   0.16229957  0.09370370 -0.04732752       0.012
  -0.16229957  0.28111111  0.08518953       0.023
  -0.11592827  0.25433862  0.06625852       0.023
  -0.06955696  0.22756613  0.04732752       0.023
  -0.16229957 -0.09370370  0.21770658       0.012
  -0.11592827 -0.12047619  0.19877557       0.023
  -0.11592827 -0.06693122  0.17984456       0.012
   0.11592827  0.06693122  0.04732752       0.004
   0.16229957  0.04015873  0.02839651       0.012
  -0.16229957  0.22756613  0.16091356       0.012
  -0.11592827  0.20079365  0.14198255       0.012
   0.16229957  0.09370370  0.00946550       0.012
  -0.16229957  0.28111111  0.14198255       0.023
  -0.11592827  0.25433862  0.12305154       0.023
  -0.16229957 -0.09370370  0.27449960       0.012
   0.16229957  0.09370370  0.06625852       0.004
  -0.16229957  0.28111111  0.19877557       0.012
 
 k-points in reciprocal lattice and weights: KPOINTS created by Atomic Simulation Env
   0.06250000  0.06250000  0.06250000       0.004
   0.18750000  0.06250000  0.06250000       0.012
   0.31250000  0.06250000  0.06250000       0.012
   0.43750000  0.06250000  0.06250000       0.012
  -0.43750000  0.06250000  0.06250000       0.012
  -0.31250000  0.06250000  0.06250000       0.012
  -0.18750000  0.06250000  0.06250000       0.012
  -0.06250000  0.06250000  0.06250000       0.012
   0.18750000  0.18750000  0.06250000       0.012
   0.31250000  0.18750000  0.06250000       0.023
   0.43750000  0.18750000  0.06250000       0.023
  -0.43750000  0.18750000  0.06250000       0.023
  -0.31250000  0.18750000  0.06250000       0.023
  -0.18750000  0.18750000  0.06250000       0.023
  -0.06250000  0.18750000  0.06250000       0.023
   0.31250000  0.31250000  0.06250000       0.012
   0.43750000  0.31250000  0.06250000       0.023
  -0.43750000  0.31250000  0.06250000       0.023
  -0.31250000  0.31250000  0.06250000       0.023
  -0.18750000  0.31250000  0.06250000       0.023
  -0.06250000  0.31250000  0.06250000       0.023
   0.43750000  0.43750000  0.06250000       0.012
  -0.43750000  0.43750000  0.06250000       0.023
  -0.31250000  0.43750000  0.06250000       0.023
  -0.18750000  0.43750000  0.06250000       0.023
  -0.06250000  0.43750000  0.06250000       0.023
  -0.43750000 -0.43750000  0.06250000       0.012
  -0.31250000 -0.43750000  0.06250000       0.023
  -0.18750000 -0.43750000  0.06250000       0.023
  -0.31250000 -0.31250000  0.06250000       0.012
  -0.18750000 -0.31250000  0.06250000       0.023
  -0.18750000 -0.18750000  0.06250000       0.012
   0.18750000  0.18750000  0.18750000       0.004
   0.31250000  0.18750000  0.18750000       0.012
   0.43750000  0.18750000  0.18750000       0.012
  -0.43750000  0.18750000  0.18750000       0.012
  -0.31250000  0.18750000  0.18750000       0.012
  -0.18750000  0.18750000  0.18750000       0.012
   0.31250000  0.31250000  0.18750000       0.012
   0.43750000  0.31250000  0.18750000       0.023
  -0.43750000  0.31250000  0.18750000       0.023
  -0.31250000  0.31250000  0.18750000       0.023
  -0.18750000  0.31250000  0.18750000       0.023
   0.43750000  0.43750000  0.18750000       0.012
  -0.43750000  0.43750000  0.18750000       0.023
  -0.31250000  0.43750000  0.18750000       0.023
  -0.18750000  0.43750000  0.18750000       0.023
  -0.43750000 -0.43750000  0.18750000       0.012
  -0.31250000 -0.43750000  0.18750000       0.023
  -0.31250000 -0.31250000  0.18750000       0.012
   0.31250000  0.31250000  0.31250000       0.004
   0.43750000  0.31250000  0.31250000       0.012
  -0.43750000  0.31250000  0.31250000       0.012
  -0.31250000  0.31250000  0.31250000       0.012
   0.43750000  0.43750000  0.31250000       0.012
  -0.43750000  0.43750000  0.31250000       0.023
  -0.31250000  0.43750000  0.31250000       0.023
  -0.43750000 -0.43750000  0.31250000       0.012
   0.43750000  0.43750000  0.43750000       0.004
  -0.43750000  0.43750000  0.43750000       0.012
 
 position of ions in fractional coordinates (direct lattice) 
   0.00000000  0.00000000  0.00000000
 
 position of ions in cartesian coordinates  (Angst):
   0.00000000  0.00000000  0.00000000
 


--------------------------------------------------------------------------------------------------------


 k-point  1 :   0.0625 0.0625 0.0625  plane waves:     181
 k-point  2 :   0.1875 0.0625 0.0625  plane waves:     196
 k-point  3 :   0.3125 0.0625 0.0625  plane waves:     202
 k-point  4 :   0.4375 0.0625 0.0625  plane waves:     206
 k-point  5 :  -0.4375 0.0625 0.0625  plane waves:     210
 k-point  6 :  -0.3125 0.0625 0.0625  plane waves:     205
 k-point  7 :  -0.1875 0.0625 0.0625  plane waves:     202
 k-point  8 :  -0.0625 0.0625 0.0625  plane waves:     196
 k-point  9 :   0.1875 0.1875 0.0625  plane waves:     198
 k-point 10 :   0.3125 0.1875 0.0625  plane waves:     201
 k-point 11 :   0.4375 0.1875 0.0625  plane waves:     204
 k-point 12 :  -0.4375 0.1875 0.0625  plane waves:     207
 k-point 13 :  -0.3125 0.1875 0.0625  plane waves:     207
 k-point 14 :  -0.1875 0.1875 0.0625  plane waves:     206
 k-point 15 :  -0.0625 0.1875 0.0625  plane waves:     200
 k-point 16 :   0.3125 0.3125 0.0625  plane waves:     207
 k-point 17 :   0.4375 0.3125 0.0625  plane waves:     207
 k-point 18 :  -0.4375 0.3125 0.0625  plane waves:     210
 k-point 19 :  -0.3125 0.3125 0.0625  plane waves:     207
 k-point 20 :  -0.1875 0.3125 0.0625  plane waves:     206
 k-point 21 :  -0.0625 0.3125 0.0625  plane waves:     203
 k-point 22 :   0.4375 0.4375 0.0625  plane waves:     209
 k-point 23 :  -0.4375 0.4375 0.0625  plane waves:     208
 k-point 24 :  -0.3125 0.4375 0.0625  plane waves:     207
 k-point 25 :  -0.1875 0.4375 0.0625  plane waves:     206
 k-point 26 :  -0.0625 0.4375 0.0625  plane waves:     207
 k-point 27 :  -0.4375-0.4375 0.0625  plane waves:     211
 k-point 28 :  -0.3125-0.4375 0.0625  plane waves:     206
 k-point 29 :  -0.1875-0.4375 0.0625  plane waves:     205
 k-point 30 :  -0.3125-0.3125 0.0625  plane waves:     207
 k-point 31 :  -0.1875-0.3125 0.0625  plane waves:     208
 k-point 32 :  -0.1875-0.1875 0.0625  plane waves:     205
 k-point 33 :   0.1875 0.1875 0.1875  plane waves:     193
 k-point 34 :   0.3125 0.1875 0.1875  plane waves:     202
 k-point 35 :   0.4375 0.1875 0.1875  plane waves:     208
 k-point 36 :  -0.4375 0.1875 0.1875  plane waves:     209
 k-point 37 :  -0.3125 0.1875 0.1875  plane waves:     205
 k-point 38 :  -0.1875 0.1875 0.1875  plane waves:     206
 k-point 39 :   0.3125 0.3125 0.1875  plane waves:     202
 k-point 40 :   0.4375 0.3125 0.1875  plane waves:     207
 k-point 41 :  -0.4375 0.3125 0.1875  plane waves:     207
 k-point 42 :  -0.3125 0.3125 0.1875  plane waves:     206
 k-point 43 :  -0.1875 0.3125 0.1875  plane waves:     205
 k-point 44 :   0.4375 0.4375 0.1875  plane waves:     208
 k-point 45 :  -0.4375 0.4375 0.1875  plane waves:     206
 k-point 46 :  -0.3125 0.4375 0.1875  plane waves:     206
 k-point 47 :  -0.1875 0.4375 0.1875  plane waves:     208
 k-point 48 :  -0.4375-0.4375 0.1875  plane waves:     210
 k-point 49 :  -0.3125-0.4375 0.1875  plane waves:     209
 k-point 50 :  -0.3125-0.3125 0.1875  plane waves:     209
 k-point 51 :   0.3125 0.3125 0.3125  plane waves:     205
 k-point 52 :   0.4375 0.3125 0.3125  plane waves:     208
 k-point 53 :  -0.4375 0.3125 0.3125  plane waves:     204
 k-point 54 :  -0.3125 0.3125 0.3125  plane waves:     214
 k-point 55 :   0.4375 0.4375 0.3125  plane waves:     205
 k-point 56 :  -0.4375 0.4375 0.3125  plane waves:     203
 k-point 57 :  -0.3125 0.4375 0.3125  plane waves:     207
 k-point 58 :  -0.4375-0.4375 0.3125  plane waves:     208
 k-point 59 :   0.4375 0.4375 0.4375  plane waves:     210
 k-point 60 :  -0.4375 0.4375 0.4375  plane waves:     206

 maximum number of plane-waves:       214
 maximum index in each direction: 
   IXMAX=    4   IYMAX=    4   IZMAX=    4
   IXMIN=   -4   IYMIN=   -4   IZMIN=   -4

 WARNING: aliasing errors must be expected set NGX to  18 to avoid them
 WARNING: aliasing errors must be expected set NGY to  18 to avoid them
 WARNING: aliasing errors must be expected set NGZ to  18 to avoid them
 aliasing errors are usually negligible using standard VASP settings
 and one can safely disregard these warnings

 total amount of memory used by VASP on root node    34642. kBytes
========================================================================

   base      :      30000. kBytes
   nonl-proj :       1852. kBytes
   grid      :        771. kBytes
   one-center:         15. kBytes
   wavefun   :       2004. kBytes
 
     INWAV:  cpu time    0.00: real time    0.00
 Broyden mixing: mesh for mixing (old mesh)
   NGX =  9   NGY =  9   NGZ =  9
  (NGX  = 24   NGY  = 24   NGZ  = 24)
  gives a total of    729 points

 initial charge density was supplied:
 charge density of overlapping atoms calculated
 number of electron      10.0000000 magnetization 
 keeping initial charge density in first step


--------------------------------------------------------------------------------------------------------


 Maximum index for augmentation-charges         5895 (set IRDMAX)


--------------------------------------------------------------------------------------------------------


 First call to EWALD:  gamma=   0.738
 Maximum number of real-space cells 3x 3x 3
 Maximum number of reciprocal cells 3x 3x 3

    FEWALD:  cpu time    0.00: real time    0.00


----------------------------------------- Iteration    1(   1)  ---------------------------------------


    POTLOK:  cpu time    0.01: real time    0.01
    SETDIJ:  cpu time    0.01: real time    0.01
     EDDAV:  cpu time    0.34: real time    0.34
       DOS:  cpu time    0.00: real time    0.00
    --------------------------------------------
      LOOP:  cpu time    0.36: real time    0.36

 eigenvalue-minimisations  :  1104
 total energy-change (2. order) : 0.2758493E+02  (-0.4184463E+03)
 number of electron      10.0000000 magnetization 
 augmentation part       10.0000000 magnetization 

 Free energy of the ion-electron system (eV)
  ---------------------------------------------------
  alpha Z        PSCENC =        47.05605333
  Ewald energy   TEWEN  =      -865.91781710
  -Hartree energ DENC   =      -116.10120823
  -exchange      EXHF   =         0.00000000
  -V(xc)+E(xc)   XCENC  =       -28.89371233
  PAW double counting   =       806.73831454     -744.51602449
  entropy T*S    EENTRO =        -0.00341271
  eigenvalues    EBANDS =       119.49660508
  atomic energy  EATOM  =       809.72612850
  ---------------------------------------------------
  free energy    TOTEN  =        27.58492660 eV

  energy without entropy =       27.58833931  energy(sigma->0) =       27.58606417


--------------------------------------------------------------------------------------------------------




----------------------------------------- Iteration    1(   2)  ---------------------------------------


     EDDAV:  cpu time    0.35: real time    0.35
       DOS:  cpu time    0.00: real time    0.01
    --------------------------------------------
      LOOP:  cpu time    0.36: real time    0.36

 eigenvalue-minimisations  :  1180
 total energy-change (2. order) :-0.3272836E+02  (-0.3196580E+02)
 number of electron      10.0000000 magnetization 
 augmentation part       10.0000000 magnetization 

 Free energy of the ion-electron system (eV)
  ---------------------------------------------------
  alpha Z        PSCENC =        47.05605333
  Ewald energy   TEWEN  =      -865.91781710
  -Hartree energ DENC   =      -116.10120823
  -exchange      EXHF   =         0.00000000
  -V(xc)+E(xc)   XCENC  =       -28.89371233
  PAW double counting   =       806.73831454     -744.51602449
  entropy T*S    EENTRO =        -0.00665226
  eigenvalues    EBANDS =        86.77148581
  atomic energy  EATOM  =       809.72612850
  ---------------------------------------------------
  free energy    TOTEN  =        -5.14343221 eV

  energy without entropy =       -5.13677996  energy(sigma->0) =       -5.14121479


--------------------------------------------------------------------------------------------------------




----------------------------------------- Iteration    1(   3)  ---------------------------------------


     EDDAV:  cpu time    0.40: real time    0.40
       DOS:  cpu time    0.01: real time    0.01
    --------------------------------------------
      LOOP:  cpu time    0.40: real time    0.40

 eigenvalue-minimisations  :  1255
 total energy-change (2. order) :-0.2666890E+00  (-0.2644008E+00)
 number of electron      10.0000000 magnetization 
 augmentation part       10.0000000 magnetization 

 Free energy of the ion-electron system (eV)
  ---------------------------------------------------
  alpha Z        PSCENC =        47.05605333
  Ewald energy   TEWEN  =      -865.91781710
  -Hartree energ DENC   =      -116.10120823
  -exchange      EXHF   =         0.00000000
  -V(xc)+E(xc)   XCENC  =       -28.89371233
  PAW double counting   =       806.73831454     -744.51602449
  entropy T*S    EENTRO =        -0.00828213
  eigenvalues    EBANDS =        86.50642671
  atomic energy  EATOM  =       809.72612850
  ---------------------------------------------------
  free energy    TOTEN  =        -5.41012118 eV

  energy without entropy =       -5.40183906  energy(sigma->0) =       -5.40736047


--------------------------------------------------------------------------------------------------------




----------------------------------------- Iteration    1(   4)  ---------------------------------------


     EDDAV:  cpu time    0.38: real time    0.38
       DOS:  cpu time    0.00: real time    0.01
    --------------------------------------------
      LOOP:  cpu time    0.38: real time    0.45

 eigenvalue-minimisations  :  1274
 total energy-change (2. order) :-0.1304029E-02  (-0.1303869E-02)
 number of electron      10.0000000 magnetization 
 augmentation part       10.0000000 magnetization 

 Free energy of the ion-electron system (eV)
  ---------------------------------------------------
  alpha Z        PSCENC =        47.05605333
  Ewald energy   TEWEN  =      -865.91781710
  -Hartree energ DENC   =      -116.10120823
  -exchange      EXHF   =         0.00000000
  -V(xc)+E(xc)   XCENC  =       -28.89371233
  PAW double counting   =       806.73831454     -744.51602449
  entropy T*S    EENTRO =        -0.00829320
  eigenvalues    EBANDS =        86.50513376
  atomic energy  EATOM  =       809.72612850
  ---------------------------------------------------
  free energy    TOTEN  =        -5.41142521 eV

  energy without entropy =       -5.40313201  energy(sigma->0) =       -5.40866081


--------------------------------------------------------------------------------------------------------




----------------------------------------- Iteration    1(   5)  ---------------------------------------


     EDDAV:  cpu time    0.38: real time    0.38
       DOS:  cpu time    0.00: real time    0.01
    CHARGE:  cpu time    0.02: real time    0.02
    MIXING:  cpu time    0.00: real time    0.00
    --------------------------------------------
      LOOP:  cpu time    0.41: real time    0.43

 eigenvalue-minimisations  :  1278
 total energy-change (2. order) :-0.1486053E-04  (-0.1486066E-04)
 number of electron      10.0000054 magnetization 
 augmentation part        3.9822317 magnetization 

 Broyden mixing:
  rms(total) = 0.93195E+00    rms(broyden)= 0.93194E+00
  rms(prec ) = 0.16673E+01
  weight for this iteration     100.00

 Free energy of the ion-electron system (eV)
  ---------------------------------------------------
  alpha Z        PSCENC =        47.05605333
  Ewald energy   TEWEN  =      -865.91781710
  -Hartree energ DENC   =      -116.10120823
  -exchange      EXHF   =         0.00000000
  -V(xc)+E(xc)   XCENC  =       -28.89371233
  PAW double counting   =       806.73831454     -744.51602449
  entropy T*S    EENTRO =        -0.00829342
  eigenvalues    EBANDS =        86.50511911
  atomic energy  EATOM  =       809.72612850
  ---------------------------------------------------
  free energy    TOTEN  =        -5.41144007 eV

  energy without entropy =       -5.40314665  energy(sigma->0) =       -5.40867560


--------------------------------------------------------------------------------------------------------




----------------------------------------- Iteration    1(   6)  ---------------------------------------


    POTLOK:  cpu time    0.01: real time    0.01
    SETDIJ:  cpu time    0.01: real time    0.01
     EDDAV:  cpu time    0.33: real time    0.33
       DOS:  cpu time    0.00: real time    0.00
    CHARGE:  cpu time    0.02: real time    0.02
    MIXING:  cpu time    0.00: real time    0.00
    --------------------------------------------
      LOOP:  cpu time    0.38: real time    0.40

 eigenvalue-minimisations  :  1102
 total energy-change (2. order) : 0.2667174E+00  (-0.1076055E+00)
 number of electron      10.0000057 magnetization 
 augmentation part        4.1574867 magnetization 

 Broyden mixing:
  rms(total) = 0.46450E+00    rms(broyden)= 0.46450E+00
  rms(prec ) = 0.51510E+00
  weight for this iteration     100.00

 eigenvalues of (default mixing * dielectric matrix)
  average eigenvalue GAMMA=   1.7496
  1.7496

 Free energy of the ion-electron system (eV)
  ---------------------------------------------------
  alpha Z        PSCENC =        47.05605333
  Ewald energy   TEWEN  =      -865.91781710
  -Hartree energ DENC   =      -108.08288100
  -exchange      EXHF   =         0.00000000
  -V(xc)+E(xc)   XCENC  =       -29.11260347
  PAW double counting   =       888.07552022     -827.54665073
  entropy T*S    EENTRO =        -0.00410229
  eigenvalues    EBANDS =        80.66162991
  atomic energy  EATOM  =       809.72612850
  ---------------------------------------------------
  free energy    TOTEN  =        -5.14472263 eV

  energy without entropy =       -5.14062034  energy(sigma->0) =       -5.14335520


--------------------------------------------------------------------------------------------------------




----------------------------------------- Iteration    1(   7)  ---------------------------------------


    POTLOK:  cpu time    0.01: real time    0.01
    SETDIJ:  cpu time    0.01: real time    0.01
     EDDAV:  cpu time    0.37: real time    0.37
       DOS:  cpu time    0.00: real time    0.01
    CHARGE:  cpu time    0.02: real time    0.02
    MIXING:  cpu time    0.00: real time    0.00
    --------------------------------------------
      LOOP:  cpu time    0.42: real time    0.46

 eigenvalue-minimisations  :  1268
 total energy-change (2. order) : 0.1570276E-01  (-0.1537954E-02)
 number of electron      10.0000057 magnetization 
 augmentation part        4.1773300 magnetization 

 Broyden mixing:
  rms(total) = 0.22746E+00    rms(broyden)= 0.22746E+00
  rms(prec ) = 0.23420E+00
  weight for this iteration     100.00

 eigenvalues of (default mixing * dielectric matrix)
  average eigenvalue GAMMA=   1.8287
  1.0907  2.5666

 Free energy of the ion-electron system (eV)
  ---------------------------------------------------
  alpha Z        PSCENC =        47.05605333
  Ewald energy   TEWEN  =      -865.91781710
  -Hartree energ DENC   =      -106.55823045
  -exchange      EXHF   =         0.00000000
  -V(xc)+E(xc)   XCENC  =       -29.15248795
  PAW double counting   =       950.81279960     -891.15523349
  entropy T*S    EENTRO =        -0.00389043
  eigenvalues    EBANDS =        80.06365811
  atomic energy  EATOM  =       809.72612850
  ---------------------------------------------------
  free energy    TOTEN  =        -5.12901987 eV

  energy without entropy =       -5.12512944  energy(sigma->0) =       -5.12772306


--------------------------------------------------------------------------------------------------------




----------------------------------------- Iteration    1(   8)  ---------------------------------------


    POTLOK:  cpu time    0.01: real time    0.01
    SETDIJ:  cpu time    0.01: real time    0.01
     EDDAV:  cpu time    0.36: real time    0.36
       DOS:  cpu time    0.00: real time    0.01
    CHARGE:  cpu time    0.02: real time    0.02
    MIXING:  cpu time    0.00: real time    0.00
    --------------------------------------------
      LOOP:  cpu time    0.42: real time    0.44

 eigenvalue-minimisations  :  1204
 total energy-change (2. order) : 0.4495356E-02  (-0.1258649E-03)
 number of electron      10.0000057 magnetization 
 augmentation part        4.1772357 magnetization 

 Broyden mixing:
  rms(total) = 0.83895E-02    rms(broyden)= 0.83892E-02
  rms(prec ) = 0.93074E-02
  weight for this iteration     100.00

 eigenvalues of (default mixing * dielectric matrix)
  average eigenvalue GAMMA=   1.5026
  2.5018  1.0910  0.9152

 Free energy of the ion-electron system (eV)
  ---------------------------------------------------
  alpha Z        PSCENC =        47.05605333
  Ewald energy   TEWEN  =      -865.91781710
  -Hartree energ DENC   =      -105.84581201
  -exchange      EXHF   =         0.00000000
  -V(xc)+E(xc)   XCENC  =       -29.17032116
  PAW double counting   =      1014.87407808     -956.00150077
  entropy T*S    EENTRO =        -0.00385696
  eigenvalues    EBANDS =        80.15852356
  atomic energy  EATOM  =       809.72612850
  ---------------------------------------------------
  free energy    TOTEN  =        -5.12452451 eV

  energy without entropy =       -5.12066755  energy(sigma->0) =       -5.12323886


--------------------------------------------------------------------------------------------------------




----------------------------------------- Iteration    1(   9)  ---------------------------------------


    POTLOK:  cpu time    0.01: real time    0.01
    SETDIJ:  cpu time    0.01: real time    0.01
     EDDAV:  cpu time    0.23: real time    0.23
       DOS:  cpu time    0.00: real time    0.00
    --------------------------------------------
      LOOP:  cpu time    0.25: real time    0.28

 eigenvalue-minimisations  :   628
 total energy-change (2. order) : 0.1381260E-05  (-0.5884770E-06)
 number of electron      10.0000057 magnetization 
 augmentation part        4.1772357 magnetization 

 Free energy of the ion-electron system (eV)
  ---------------------------------------------------
  alpha Z        PSCENC =        47.05605333
  Ewald energy   TEWEN  =      -865.91781710
  -Hartree energ DENC   =      -105.88448152
  -exchange      EXHF   =         0.00000000
  -V(xc)+E(xc)   XCENC  =       -29.16928593
  PAW double counting   =      1013.22025293     -954.30216197
  entropy T*S    EENTRO =        -0.00385768
  eigenvalues    EBANDS =        80.15064630
  atomic energy  EATOM  =       809.72612850
  ---------------------------------------------------
  free energy    TOTEN  =        -5.12452313 eV

  energy without entropy =       -5.12066545  energy(sigma->0) =       -5.12323724


--------------------------------------------------------------------------------------------------------




 average (electrostatic) potential at core
  the test charge radii are     1.1199
  (the norm of the test charge is              1.0000)
       1 -69.5667
 
 
 
 E-fermi :  10.9122     XC(G=0): -13.5807     alpha+bet :-17.7788


 k-point     1 :       0.0625    0.0625    0.0625
  band No.  band energies     occupation 
      1       3.3953      2.00000
      2       7.7047      2.00000
      3       7.8158      2.00000
      4       7.8158      2.00000
      5       9.5227      2.00000
      6       9.5227      2.00000
      7      28.2695      0.00000
      8      32.2926      0.00000
      9      33.4177      0.00000

 k-point     2 :       0.1875    0.0625    0.0625
  band No.  band energies     occupation 
      1       4.1381      2.00000
      2       7.4363      2.00000
      3       8.0478      2.00000
      4       8.0760      2.00000
      5       9.2678      2.00000
      6       9.6482      2.00000
      7      28.8594      0.00000
      8      29.8348      0.00000
      9      33.2071      0.00000

 k-point     3 :       0.3125    0.0625    0.0625
  band No.  band energies     occupation 
      1       5.2304      2.00000
      2       7.6993      2.00000
      3       8.0855      2.00000
      4       8.1319      2.00000
      5       9.5301      2.00000
      6      10.2587      2.00004
      7      25.2765      0.00000
      8      29.1385      0.00000
      9      33.5274      0.00000

 k-point     4 :       0.4375    0.0625    0.0625
  band No.  band energies     occupation 
      1       5.2754      2.00000
      2       7.7396      2.00000
      3       7.8699      2.00000
      4       9.5648      2.00000
      5      10.4039      2.00192
      6      11.5497     -0.00006
      7      20.7767      0.00000
      8      27.9809      0.00000
      9      32.1177      0.00000

 k-point     5 :      -0.4375    0.0625    0.0625
  band No.  band energies     occupation 
      1       5.1920      2.00000
      2       7.6162      2.00000
      3       7.8000      2.00000
      4      10.1015      2.00000
      5      10.8902      1.18462
      6      12.5368      0.00000
      7      18.8286      0.00000
      8      27.6069      0.00000
      9      32.1565      0.00000

 k-point     6 :      -0.3125    0.0625    0.0625
  band No.  band energies     occupation 
      1       5.3171      2.00000
      2       7.7984      2.00000
      3       7.9912      2.00000
      4       8.8401      2.00000
      5      10.5516      2.02862
      6      10.7167      2.04524
      7      22.1985      0.00000
      8      28.3836      0.00000
      9      32.7889      0.00000

 k-point     7 :      -0.1875    0.0625    0.0625
  band No.  band energies     occupation 
      1       4.9507      2.00000
      2       7.4060      2.00000
      3       8.1220      2.00000
      4       8.1884      2.00000
      5       9.4546      2.00000
      6       9.8700      2.00000
      7      26.7762      0.00000
      8      29.4952      0.00000
      9      33.6330      0.00000

 k-point     8 :      -0.0625    0.0625    0.0625
  band No.  band energies     occupation 
      1       3.7819      2.00000
      2       7.5043      2.00000
      3       7.9803      2.00000
      4       7.9870      2.00000
      5       9.3027      2.00000
      6       9.6254      2.00000
      7      28.6979      0.00000
      8      31.1116      0.00000
      9      33.2287      0.00000

 k-point     9 :       0.1875    0.1875    0.0625
  band No.  band energies     occupation 
      1       4.4875      2.00000
      2       7.1248      2.00000
      3       8.2904      2.00000
      4       8.3229      2.00000
      5       9.0131      2.00000
      6       9.8194      2.00000
      7      29.3478      0.00000
      8      30.1114      0.00000
      9      32.4042      0.00000

 k-point    10 :       0.3125    0.1875    0.0625
  band No.  band energies     occupation 
      1       5.5273      2.00000
      2       6.7967      2.00000
      3       8.0576      2.00000
      4       8.7378      2.00000
      5       9.4312      2.00000
      6      10.4019      2.00183
      7      27.2263      0.00000
      8      29.1573      0.00000
      9      31.6496      0.00000

 k-point    11 :       0.4375    0.1875    0.0625
  band No.  band energies     occupation 
      1       5.8011      2.00000
      2       7.3657      2.00000
      3       7.7937      2.00000
      4       8.5754      2.00000
      5      10.5067      2.01461
      6      12.1736      0.00000
      7      22.5128      0.00000
      8      28.3047      0.00000
      9      29.8852      0.00000

 k-point    12 :      -0.4375    0.1875    0.0625
  band No.  band energies     occupation 
      1       5.7166      2.00000
      2       7.1791      2.00000
      3       8.3179      2.00000
      4       8.7069      2.00000
      5      10.8120      1.74118
      6      14.6549      0.00000
      7      18.8117      0.00000
      8      27.6025      0.00000
      9      29.4336      0.00000

 k-point    13 :      -0.3125    0.1875    0.0625
  band No.  band energies     occupation 
      1       5.8551      2.00000
      2       7.3424      2.00000
      3       8.1731      2.00000
      4       8.4864      2.00000
      5      10.2730      2.00006
      6      13.2588      0.00000
      7      21.1025      0.00000
      8      27.3756      0.00000
      9      29.9017      0.00000

 k-point    14 :      -0.1875    0.1875    0.0625
  band No.  band energies     occupation 
      1       5.8919      2.00000
      2       7.0282      2.00000
      3       7.8328      2.00000
      4       8.6838      2.00000
      5       9.2559      2.00000
      6      11.1928     -0.06331
      7      25.7028      0.00000
      8      27.8913      0.00000
      9      31.7212      0.00000

 k-point    15 :      -0.0625    0.1875    0.0625
  band No.  band energies     occupation 
      1       4.7847      2.00000
      2       7.1720      2.00000
      3       8.1797      2.00000
      4       8.3199      2.00000
      5       9.1251      2.00000
      6       9.9377      2.00000
      7      28.3045      0.00000
      8      29.4273      0.00000
      9      32.7542      0.00000

 k-point    16 :       0.3125    0.3125    0.0625
  band No.  band energies     occupation 
      1       5.6879      2.00000
      2       6.1950      2.00000
      3       8.7928      2.00000
      4       9.3857      2.00000
      5      10.0343      2.00000
      6      10.3780      2.00104
      7      27.6205      0.00000
      8      28.8080      0.00000
      9      29.2096      0.00000

 k-point    17 :       0.4375    0.3125    0.0625
  band No.  band energies     occupation 
      1       5.7526      2.00000
      2       6.0338      2.00000
      3       8.6841      2.00000
      4       9.8488      2.00000
      5      10.5931      2.04653
      6      12.4444      0.00000
      7      24.6658      0.00000
      8      26.6341      0.00000
      9      27.1040      0.00000

 k-point    18 :      -0.4375    0.3125    0.0625
  band No.  band energies     occupation 
      1       5.8527      2.00000
      2       6.5012      2.00000
      3       8.2571      2.00000
      4       9.4378      2.00000
      5      10.8988      1.11303
      6      16.0079      0.00000
      7      20.1841      0.00000
      8      24.9706      0.00000
      9      27.0571      0.00000

 k-point    19 :      -0.3125    0.3125    0.0625
  band No.  band energies     occupation 
      1       6.3400      2.00000
      2       6.9730      2.00000
      3       7.6354      2.00000
      4       9.1487      2.00000
      5      10.3250      2.00027
      6      16.2417      0.00000
      7      20.6589      0.00000
      8      23.4451      0.00000
      9      28.7824      0.00000

 k-point    20 :      -0.1875    0.3125    0.0625
  band No.  band energies     occupation 
      1       6.4716      2.00000
      2       7.1768      2.00000
      3       7.3988      2.00000
      4       8.8891      2.00000
      5       9.7308      2.00000
      6      13.3991      0.00000
      7      23.1014      0.00000
      8      25.3884      0.00000
      9      30.0808      0.00000

 k-point    21 :      -0.0625    0.3125    0.0625
  band No.  band energies     occupation 
      1       5.5446      2.00000
      2       7.7602      2.00000
      3       7.8715      2.00000
      4       8.2663      2.00000
      5       9.9142      2.00000
      6      10.9922      0.37947
      7      23.8727      0.00000
      8      28.7623      0.00000
      9      31.8163      0.00000

 k-point    22 :       0.4375    0.4375    0.0625
  band No.  band energies     occupation 
      1       5.2235      2.00000
      2       5.4948      2.00000
      3      10.3910      2.00142
      4      10.4921      2.01140
      5      10.9565      0.63505
      6      13.0115      0.00000
      7      24.4413      0.00000
      8      24.8397      0.00000
      9      25.5389      0.00000

 k-point    23 :      -0.4375    0.4375    0.0625
  band No.  band energies     occupation 
      1       5.2709      2.00000
      2       5.5923      2.00000
      3       9.8228      2.00000
      4      10.4549      2.00570
      5      11.1447     -0.06962
      6      15.6832      0.00000
      7      22.3918      0.00000
      8      23.0861      0.00000
      9      24.7606      0.00000

 k-point    24 :      -0.3125    0.4375    0.0625
  band No.  band energies     occupation 
      1       5.7535      2.00000
      2       6.3532      2.00000
      3       8.4978      2.00000
      4       9.7373      2.00000
      5      10.8414      1.55948
      6      18.0111      0.00000
      7      19.5535      0.00000
      8      22.7522      0.00000
      9      26.6363      0.00000

 k-point    25 :      -0.1875    0.4375    0.0625
  band No.  band energies     occupation 
      1       6.0999      2.00000
      2       6.9249      2.00000
      3       8.1469      2.00000
      4       8.7500      2.00000
      5      10.6183      2.05796
      6      15.9723      0.00000
      7      18.9824      0.00000
      8      25.8626      0.00000
      9      28.8378      0.00000

 k-point    26 :      -0.0625    0.4375    0.0625
  band No.  band energies     occupation 
      1       5.4174      2.00000
      2       7.4982      2.00000
      3       8.0055      2.00000
      4       9.2498      2.00000
      5      10.7295      2.02732
      6      12.9365      0.00000
      7      19.6091      0.00000
      8      27.8672      0.00000
      9      30.9003      0.00000

 k-point    27 :      -0.4375   -0.4375    0.0625
  band No.  band energies     occupation 
      1       5.0308      2.00000
      2       5.3407      2.00000
      3      10.7406      2.00684
      4      10.8255      1.66296
      5      11.1688     -0.06994
      6      14.4467      0.00000
      7      22.6045      0.00000
      8      24.0305      0.00000
      9      24.7500      0.00000

 k-point    28 :      -0.3125   -0.4375    0.0625
  band No.  band energies     occupation 
      1       5.4621      2.00000
      2       5.7408      2.00000
      3       9.3478      2.00000
      4      10.3088      2.00017
      5      10.9208      0.92717
      6      14.1649      0.00000
      7      23.4497      0.00000
      8      24.6470      0.00000
      9      25.4357      0.00000

 k-point    29 :      -0.1875   -0.4375    0.0625
  band No.  band energies     occupation 
      1       5.9081      2.00000
      2       6.8520      2.00000
      3       7.9644      2.00000
      4       8.9999      2.00000
      5      10.8316      1.62435
      6      13.9178      0.00000
      7      21.2332      0.00000
      8      27.2872      0.00000
      9      27.9708      0.00000

 k-point    30 :      -0.3125   -0.3125    0.0625
  band No.  band energies     occupation 
      1       5.5250      2.00000
      2       5.7904      2.00000
      3       9.6327      2.00000
      4       9.9941      2.00000
      5      10.6768      2.07017
      6      11.3286     -0.01216
      7      26.0960      0.00000
      8      26.9663      0.00000
      9      27.0057      0.00000

 k-point    31 :      -0.1875   -0.3125    0.0625
  band No.  band energies     occupation 
      1       5.9110      2.00000
      2       6.4090      2.00000
      3       8.1176      2.00000
      4       9.2673      2.00000
      5      10.0800      2.00000
      6      11.1426     -0.06912
      7      26.0057      0.00000
      8      28.0629      0.00000
      9      29.5148      0.00000

 k-point    32 :      -0.1875   -0.1875    0.0625
  band No.  band energies     occupation 
      1       5.2909      2.00000
      2       6.6606      2.00000
      3       8.4272      2.00000
      4       8.8025      2.00000
      5       9.2159      2.00000
      6      10.0809      2.00000
      7      28.8622      0.00000
      8      30.2644      0.00000
      9      30.7735      0.00000

 k-point    33 :       0.1875    0.1875    0.1875
  band No.  band energies     occupation 
      1       4.4334      2.00000
      2       7.4880      2.00000
      3       8.0757      2.00000
      4       8.0757      2.00000
      5       9.4970      2.00000
      6       9.4970      2.00000
      7      28.0533      0.00000
      8      29.4485      0.00000
      9      34.7238      0.00000

 k-point    34 :       0.3125    0.1875    0.1875
  band No.  band energies     occupation 
      1       5.3071      2.00000
      2       7.1597      2.00000
      3       8.1028      2.00000
      4       8.4230      2.00000
      5       9.0270      2.00000
      6      10.4359      2.00386
      7      26.9559      0.00000
      8      28.8003      0.00000
      9      32.9941      0.00000

 k-point    35 :       0.4375    0.1875    0.1875
  band No.  band energies     occupation 
      1       6.2232      2.00000
      2       7.2009      2.00000
      3       7.7364      2.00000
      4       8.6136      2.00000
      5       9.3057      2.00000
      6      12.1845      0.00000
      7      24.3466      0.00000
      8      26.6146      0.00000
      9      31.2241      0.00000

 k-point    36 :      -0.4375    0.1875    0.1875
  band No.  band energies     occupation 
      1       5.9482      2.00000
      2       7.1840      2.00000
      3       8.4157      2.00000
      4       8.4353      2.00000
      5      10.3542      2.00058
      6      14.5104      0.00000
      7      19.9059      0.00000
      8      26.4999      0.00000
      9      30.2155      0.00000

 k-point    37 :      -0.3125    0.1875    0.1875
  band No.  band energies     occupation 
      1       5.7709      2.00000
      2       7.1059      2.00000
      3       8.3197      2.00000
      4       8.5380      2.00000
      5      10.9432      0.74083
      6      14.3084      0.00000
      7      19.6870      0.00000
      8      27.4029      0.00000
      9      29.8997      0.00000

 k-point    38 :      -0.1875    0.1875    0.1875
  band No.  band energies     occupation 
      1       5.8098      2.00000
      2       6.8634      2.00000
      3       7.9460      2.00000
      4       8.7938      2.00000
      5      10.6763      2.07024
      6      11.2847     -0.02431
      7      24.1662      0.00000
      8      28.9401      0.00000
      9      29.7420      0.00000

 k-point    39 :       0.3125    0.3125    0.1875
  band No.  band energies     occupation 
      1       5.5102      2.00000
      2       7.1990      2.00000
      3       7.9494      2.00000
      4       8.4271      2.00000
      5      10.0491      2.00000
      6      10.2924      2.00011
      7      25.4978      0.00000
      8      29.4896      0.00000
      9      31.7182      0.00000

 k-point    40 :       0.4375    0.3125    0.1875
  band No.  band energies     occupation 
      1       6.2363      2.00000
      2       6.8470      2.00000
      3       7.5255      2.00000
      4       9.1342      2.00000
      5       9.8252      2.00000
      6      12.2366      0.00000
      7      24.4602      0.00000
      8      26.7408      0.00000
      9      29.6989      0.00000

 k-point    41 :      -0.4375    0.3125    0.1875
  band No.  band energies     occupation 
      1       6.6252      2.00000
      2       6.7970      2.00000
      3       7.2973      2.00000
      4       9.2793      2.00000
      5      10.2799      2.00007
      6      14.9603      0.00000
      7      21.9445      0.00000
      8      24.3560      0.00000
      9      27.9261      0.00000

 k-point    42 :      -0.3125    0.3125    0.1875
  band No.  band energies     occupation 
      1       6.2911      2.00000
      2       6.6835      2.00000
      3       7.7767      2.00000
      4       9.1669      2.00000
      5      10.7677      1.93511
      6      16.9950      0.00000
      7      19.0895      0.00000
      8      25.4698      0.00000
      9      26.2934      0.00000

 k-point    43 :      -0.1875    0.3125    0.1875
  band No.  band energies     occupation 
      1       6.1471      2.00000
      2       6.4888      2.00000
      3       7.7853      2.00000
      4       9.6302      2.00000
      5      10.3792      2.00107
      6      13.7051      0.00000
      7      23.2394      0.00000
      8      25.5512      0.00000
      9      27.3668      0.00000

 k-point    44 :       0.4375    0.4375    0.1875
  band No.  band energies     occupation 
      1       5.7555      2.00000
      2       6.4108      2.00000
      3       8.4118      2.00000
      4       9.2584      2.00000
      5      10.9411      0.75799
      6      12.9737      0.00000
      7      22.8245      0.00000
      8      27.1405      0.00000
      9      28.0703      0.00000

 k-point    45 :      -0.4375    0.4375    0.1875
  band No.  band energies     occupation 
      1       5.8845      2.00000
      2       6.1966      2.00000
      3       8.2773      2.00000
      4       9.9220      2.00000
      5      10.8311      1.62792
      6      15.5459      0.00000
      7      22.2020      0.00000
      8      24.4568      0.00000
      9      25.0164      0.00000

 k-point    46 :      -0.3125    0.4375    0.1875
  band No.  band energies     occupation 
      1       6.0891      2.00000
      2       6.7306      2.00000
      3       7.6103      2.00000
      4       9.4962      2.00000
      5      11.1332     -0.06573
      6      18.9045      0.00000
      7      20.3688      0.00000
      8      22.5989      0.00000
      9      23.6826      0.00000

 k-point    47 :      -0.1875    0.4375    0.1875
  band No.  band energies     occupation 
      1       6.3214      2.00000
      2       6.7405      2.00000
      3       7.4365      2.00000
      4       9.4809      2.00000
      5      10.7929      1.83682
      6      16.8916      0.00000
      7      20.9631      0.00000
      8      23.6108      0.00000
      9      25.3874      0.00000

 k-point    48 :      -0.4375   -0.4375    0.1875
  band No.  band energies     occupation 
      1       5.4184      2.00000
      2       5.8889      2.00000
      3       9.3509      2.00000
      4      10.1410      2.00000
      5      10.9664      0.55969
      6      16.6364      0.00000
      7      21.0110      0.00000
      8      22.7192      0.00000
      9      26.2482      0.00000

 k-point    49 :      -0.3125   -0.4375    0.1875
  band No.  band energies     occupation 
      1       5.6881      2.00000
      2       6.0698      2.00000
      3       8.6613      2.00000
      4       9.9468      2.00000
      5      11.1357     -0.06682
      6      17.2828      0.00000
      7      21.5596      0.00000
      8      22.6910      0.00000
      9      24.2085      0.00000

 k-point    50 :      -0.3125   -0.3125    0.1875
  band No.  band energies     occupation 
      1       5.5653      2.00000
      2       6.0591      2.00000
      3       8.9802      2.00000
      4       9.7532      2.00000
      5      11.0296      0.17162
      6      14.9235      0.00000
      7      21.6835      0.00000
      8      24.7321      0.00000
      9      26.8723      0.00000

 k-point    51 :       0.3125    0.3125    0.3125
  band No.  band energies     occupation 
      1       5.2144      2.00000
      2       7.9732      2.00000
      3       7.9732      2.00000
      4       8.5547      2.00000
      5      10.0761      2.00000
      6      10.0761      2.00000
      7      23.6604      0.00000
      8      28.7215      0.00000
      9      34.8931      0.00000

 k-point    52 :       0.4375    0.3125    0.3125
  band No.  band energies     occupation 
      1       5.6588      2.00000
      2       7.6427      2.00000
      3       8.1793      2.00000
      4       8.3514      2.00000
      5       9.8724      2.00000
      6      11.9749      0.00000
      7      22.4184      0.00000
      8      28.0424      0.00000
      9      31.0140      0.00000

 k-point    53 :      -0.4375    0.3125    0.3125
  band No.  band energies     occupation 
      1       6.4457      2.00000
      2       7.1455      2.00000
      3       7.6315      2.00000
      4       8.8558      2.00000
      5       9.9215      2.00000
      6      14.6888      0.00000
      7      21.8598      0.00000
      8      24.2347      0.00000
      9      30.6698      0.00000

 k-point    54 :      -0.3125    0.3125    0.3125
  band No.  band energies     occupation 
      1       5.9641      2.00000
      2       6.7568      2.00000
      3       8.1190      2.00000
      4       9.4032      2.00000
      5      10.5206      2.01825
      6      17.6609      0.00000
      7      19.3548      0.00000
      8      22.9499      0.00000
      9      28.8050      0.00000

 k-point    55 :       0.4375    0.4375    0.3125
  band No.  band energies     occupation 
      1       5.5247      2.00000
      2       7.4868      2.00000
      3       8.1867      2.00000
      4       8.5659      2.00000
      5      10.8630      1.40286
      6      12.3130      0.00000
      7      20.8610      0.00000
      8      28.2205      0.00000
      9      31.1085      0.00000

 k-point    56 :      -0.4375    0.4375    0.3125
  band No.  band energies     occupation 
      1       6.1095      2.00000
      2       6.9408      2.00000
      3       7.9778      2.00000
      4       8.8065      2.00000
      5      10.6295      2.06254
      6      14.9692      0.00000
      7      19.9432      0.00000
      8      26.7531      0.00000
      9      27.9890      0.00000

 k-point    57 :      -0.3125    0.4375    0.3125
  band No.  band energies     occupation 
      1       6.2133      2.00000
      2       6.7757      2.00000
      3       7.6316      2.00000
      4       9.3959      2.00000
      5      10.7932      1.83559
      6      18.1397      0.00000
      7      19.6115      0.00000
      8      23.0047      0.00000
      9      26.0627      0.00000

 k-point    58 :      -0.4375   -0.4375    0.3125
  band No.  band energies     occupation 
      1       5.9384      2.00000
      2       6.8334      2.00000
      3       8.1774      2.00000
      4       8.9895      2.00000
      5      10.7885      1.85631
      6      16.4530      0.00000
      7      18.8714      0.00000
      8      25.2730      0.00000
      9      29.1514      0.00000

 k-point    59 :       0.4375    0.4375    0.4375
  band No.  band energies     occupation 
      1       5.1187      2.00000
      2       7.7385      2.00000
      3       7.7385      2.00000
      4      10.7717      1.92142
      5      10.7717      1.92142
      6      11.1358     -0.06686
      7      19.5543      0.00000
      8      27.6223      0.00000
      9      32.9090      0.00000

 k-point    60 :      -0.4375    0.4375    0.4375
  band No.  band energies     occupation 
      1       5.4821      2.00000
      2       7.4000      2.00000
      3       8.0447      2.00000
      4       9.2625      2.00000
      5      10.7326      2.02219
      6      13.8290      0.00000
      7      18.8310      0.00000
      8      27.6802      0.00000
      9      30.6199      0.00000


--------------------------------------------------------------------------------------------------------


 soft charge-density along one line, spin component           1
         0         1         2         3         4         5         6         7         8         9
x     5.8228    0.0000    0.7057    0.0000   -0.2652    0.0000    0.0051    0.0000    0.0094    0.0000
x     0.0002    0.0000    0.0000    0.0000
y     5.8228    0.0000    0.7057    0.0000   -0.2652    0.0000    0.0051    0.0000    0.0094    0.0000
y     0.0002    0.0000    0.0000    0.0000
z     5.8228    0.0000    0.7057    0.0000   -0.2652    0.0000    0.0051    0.0000    0.0094    0.0000
z     0.0002    0.0000    0.0000    0.0000
 total charge-density along one line
x    10.0000    0.0000    3.4482    0.0000    0.3727    0.0000   -0.0115    0.0000    0.0080    0.0000
x    -0.0001    0.0000    0.0002    0.0000   -0.0001    0.0000    0.0001    0.0000    0.0000    0.0000
x     0.0000    0.0000    0.0000    0.0000    0.0000    0.0000
y    10.0000    0.0000    3.4482    0.0000    0.3727    0.0000   -0.0115    0.0000    0.0080    0.0000
y    -0.0001    0.0000    0.0002    0.0000   -0.0001    0.0000    0.0001    0.0000    0.0000    0.0000
y     0.0000    0.0000    0.0000    0.0000    0.0000    0.0000
z    10.0000    0.0000    3.4482    0.0000    0.3727    0.0000   -0.0115    0.0000    0.0080    0.0000
z    -0.0001    0.0000    0.0002    0.0000   -0.0001    0.0000    0.0001    0.0000    0.0000    0.0000
z     0.0000    0.0000    0.0000    0.0000    0.0000    0.0000
 
 pseudopotential strength for first ion, spin component:           1
 -1.638   0.000   0.000  -0.015   0.000  -1.909   0.000   0.000
  0.000  -1.627   0.000   0.000  -0.015   0.000  -1.899   0.000
  0.000   0.000  -1.648   0.000   0.000   0.000   0.000  -1.919
 -0.015   0.000   0.000  -1.627   0.000  -0.015   0.000   0.000
  0.000  -0.015   0.000   0.000  -1.638   0.000  -0.015   0.000
 -1.909   0.000   0.000  -0.015   0.000  -2.145   0.000   0.000
  0.000  -1.899   0.000   0.000  -0.015   0.000  -2.135   0.000
  0.000   0.000  -1.919   0.000   0.000   0.000   0.000  -2.155
 -0.015   0.000   0.000  -1.899   0.000  -0.014   0.000   0.000
  0.000  -0.015   0.000   0.000  -1.909   0.000  -0.014   0.000
  0.000   0.000   0.000   0.000   0.000   0.000   0.000   0.000
  0.000   0.000   0.000   0.000   0.000   0.000   0.000   0.000
  0.000   0.000   0.000   0.000   0.000   0.000   0.000   0.000
  0.000   0.000   0.000   0.000   0.000   0.000   0.000   0.000
  0.000   0.000   0.000   0.000   0.000   0.000   0.000   0.000
  0.000   0.000   0.000   0.000   0.000   0.000   0.000   0.000
  0.000   0.000   0.000   0.000   0.000   0.000   0.000   0.000
  0.000   0.000   0.000   0.000   0.000   0.000   0.000   0.000
 total augmentation occupancy for first ion, spin component:           1
  3.529   0.000   0.000  -0.253   0.000  -2.292   0.000   0.000   0.037   0.000   0.000   0.000   0.000   0.000   0.000   0.000
  0.000   3.708   0.000   0.000  -0.253   0.000  -2.318   0.000   0.000   0.037   0.000   0.000   0.000   0.000   0.000   0.000
  0.000   0.000   3.351   0.000   0.000   0.000   0.000  -2.266   0.000   0.000   0.000   0.000   0.000   0.000   0.000   0.000
 -0.253   0.000   0.000   3.708   0.000   0.037   0.000   0.000  -2.318   0.000   0.000   0.000   0.000   0.000   0.000   0.000
  0.000  -0.253   0.000   0.000   3.529   0.000   0.037   0.000   0.000  -2.292   0.000   0.000   0.000   0.000   0.000   0.000
 -2.292   0.000   0.000   0.037   0.000   2.841   0.000   0.000   0.127   0.000   0.000   0.000   0.000   0.000   0.000   0.000
  0.000  -2.318   0.000   0.000   0.037   0.000   2.751   0.000   0.000   0.127   0.000   0.000   0.000   0.000   0.000   0.000
  0.000   0.000  -2.266   0.000   0.000   0.000   0.000   2.931   0.000   0.000   0.000   0.000   0.000   0.000   0.000   0.000
  0.037   0.000   0.000  -2.318   0.000   0.127   0.000   0.000   2.751   0.000   0.000   0.000   0.000   0.000   0.000   0.000
  0.000   0.037   0.000   0.000  -2.292   0.000   0.127   0.000   0.000   2.841   0.000   0.000   0.000   0.000   0.000   0.000
  0.000   0.000   0.000   0.000   0.000   0.000   0.000   0.000   0.000   0.000   2.284  -0.371   0.000   0.000   0.000   0.000
  0.000   0.000   0.000   0.000   0.000   0.000   0.000   0.000   0.000   0.000  -0.371   0.064   0.000   0.000   0.000   0.000
  0.000   0.000   0.000   0.000   0.000   0.000   0.000   0.000   0.000   0.000   0.000   0.000   0.287   0.000   0.000  -0.017
  0.000   0.000   0.000   0.000   0.000   0.000   0.000   0.000   0.000   0.000   0.000   0.000   0.000   0.287   0.000   0.000
  0.000   0.000   0.000   0.000   0.000   0.000   0.000   0.000   0.000   0.000   0.000   0.000   0.000   0.000   0.287   0.000
  0.000   0.000   0.000   0.000   0.000   0.000   0.000   0.000   0.000   0.000   0.000   0.000  -0.017   0.000   0.000   0.001
  0.000   0.000   0.000   0.000   0.000   0.000   0.000   0.000   0.000   0.000   0.000   0.000   0.000  -0.017   0.000   0.000
  0.000   0.000   0.000   0.000   0.000   0.000   0.000   0.000   0.000   0.000   0.000   0.000   0.000   0.000  -0.017   0.000


------------------------ aborting loop because EDIFF is reached ----------------------------------------


    CHARGE:  cpu time    0.02: real time    0.02
    FORLOC:  cpu time    0.00: real time    0.00
    FORNL :  cpu time    0.06: real time    0.06
    STRESS:  cpu time    0.20: real time    0.20
    FORCOR:  cpu time    0.01: real time    0.02
    FORHAR:  cpu time    0.00: real time    0.00
    MIXING:  cpu time    0.00: real time    0.00
    OFIELD:  cpu time    0.00: real time    0.00

  FORCE on cell =-STRESS in cart. coord.  units (eV):
  Direction    XX          YY          ZZ          XY          YZ          ZX
  --------------------------------------------------------------------------------------
  Alpha Z    47.05605    47.05605    47.05605
  Ewald    -288.63928  -288.63928  -288.63928     0.00000     0.00000     0.00000
  Hartree    35.30155    35.30155    35.30155     0.00000     0.00000     0.00000
  E(xc)     -52.85546   -52.85547   -52.85547     0.00001     0.00000     0.00000
  Local      50.81349    50.81323    50.81316     0.00023     0.00009     0.00016
  n-local    -3.59931    -1.63740     2.61003     0.39126    -0.33983     2.77489
  augment    74.00879    74.00899    74.00904    -0.00018    -0.00007    -0.00013
  Kinetic   135.56697   135.90767   139.50378     0.45482    -0.76867     2.29769
  Fock        0.00000     0.00000     0.00000     0.00000     0.00000     0.00000
  -------------------------------------------------------------------------------------
  Total       1.80234     1.80234     1.80234     0.00000     0.00000     0.00000
  in kB     208.48768   208.48768   208.48768     0.00000     0.00000     0.00000
  external pressure =      208.49 kB  Pullay stress =        0.00 kB


 VOLUME and BASIS-vectors are now :
 -----------------------------------------------------------------------------
  energy-cutoff  :      350.00
  volume of cell :       13.85
      direct lattice vectors                 reciprocal lattice vectors
     2.695632471  0.000000000  0.000000000     0.370970453 -0.214179891 -0.151448053
     1.347816236  2.334486199  0.000000000     0.000000000  0.428359782 -0.151448053
     1.347816236  0.778162066  2.200974696     0.000000000  0.000000000  0.454344160

  length of vectors
     2.695632471  2.695632471  2.695632471     0.454344160  0.454344160  0.454344160


 FORCES acting on ions
    electron-ion (+dipol)            ewald-force                    non-local-force                 convergence-correction
 -----------------------------------------------------------------------------------------------
   -.562E-13 -.166E-13 -.800E-14   0.393E-15 0.297E-15 0.685E-15   0.000E+00 0.331E-23 0.000E+00   -.324E-13 -.347E-13 -.348E-13
 -----------------------------------------------------------------------------------------------
   -.562E-13 -.166E-13 -.800E-14   0.393E-15 0.297E-15 0.685E-15   0.000E+00 0.331E-23 0.000E+00   -.324E-13 -.347E-13 -.348E-13
 
 
 POSITION                                       TOTAL-FORCE (eV/Angst)
 -----------------------------------------------------------------------------------
      0.00000      0.00000      0.00000         0.000000      0.000000      0.000000
 -----------------------------------------------------------------------------------
    total drift:                                0.000000      0.000000      0.000000


--------------------------------------------------------------------------------------------------------



  FREE ENERGIE OF THE ION-ELECTRON SYSTEM (eV)
  ---------------------------------------------------
  free  energy   TOTEN  =        -5.12452313 eV

  energy  without entropy=       -5.12066545  energy(sigma->0) =       -5.12323724
 


--------------------------------------------------------------------------------------------------------


    POTLOK:  cpu time    0.02: real time    0.14


--------------------------------------------------------------------------------------------------------


 stress matrix after NEB project (eV)
      1.80234      0.00000      0.00000
      0.00000      1.80234      0.00000
      0.00000      0.00000      1.80234
  FORCES: max atom, RMS     0.000000    0.000000
  FORCE total and by dimension    0.000000    0.000000
  Stress total and by dimension    3.121745    1.802341


--------------------------------------------------------------------------------------------------------


  
 reached required accuracy - stopping structural energy minimisation
 writing wavefunctions
     LOOP+:  cpu time    3.78: real time    4.34
    4ORBIT:  cpu time    0.00: real time    0.00

 total amount of memory used by VASP on root node    34642. kBytes
========================================================================

   base      :      30000. kBytes
   nonl-proj :       1852. kBytes
   grid      :        771. kBytes
   one-center:         15. kBytes
   wavefun   :       2004. kBytes
 
  
  
 General timing and accounting informations for this job:
 ========================================================
  
                  Total CPU time used (sec):        4.178
                            User time (sec):        4.072
                          System time (sec):        0.106
                         Elapsed time (sec):        4.822
  
                   Maximum memory used (kb):           0.
                   Average memory used (kb):           0.
  
                          Minor page faults:         5054
                          Major page faults:            0
                 Voluntary context switches:         3985
