<?xml version="1.0" encoding="ISO-8859-1"?>
<modeling>
 <generator>
  <i name="program" type="string">vasp </i>
  <i name="version" type="string">5.3.5  </i>
  <i name="subversion" type="string">31Mar14 (build Jan 09 2015 16:57:47) complex                          serial </i>
  <i name="platform" type="string">LinuxIFC </i>
  <i name="date" type="string">2015 03 24 </i>
  <i name="time" type="string">14:25:57 </i>
 </generator>
 <incar>
  <i type="string" name="PREC">normal</i>
  <i type="int" name="IBRION">     2</i>
  <i type="int" name="NSW">    30</i>
  <i type="int" name="ISIF">     2</i>
  <i name="ENCUT">    350.00000000</i>
 </incar>
 <kpoints>
  <generation param="Monkhorst-Pack">
   <v type="int" name="divisions">       8        8        8 </v>
   <v name="usershift">      0.00000000       0.00000000       0.00000000 </v>
   <v name="genvec1">      0.12500000       0.00000000       0.00000000 </v>
   <v name="genvec2">      0.00000000       0.12500000       0.00000000 </v>
   <v name="genvec3">      0.00000000       0.00000000       0.12500000 </v>
   <v name="shift">      0.50000000       0.50000000       0.50000000 </v>
  </generation>
  <varray name="kpointlist" >
   <v>       0.06250000       0.06250000       0.06250000 </v>
   <v>       0.18750000       0.06250000       0.06250000 </v>
   <v>       0.31250000       0.06250000       0.06250000 </v>
   <v>       0.43750000       0.06250000       0.06250000 </v>
   <v>      -0.43750000       0.06250000       0.06250000 </v>
   <v>      -0.31250000       0.06250000       0.06250000 </v>
   <v>      -0.18750000       0.06250000       0.06250000 </v>
   <v>      -0.06250000       0.06250000       0.06250000 </v>
   <v>       0.18750000       0.18750000       0.06250000 </v>
   <v>       0.31250000       0.18750000       0.06250000 </v>
   <v>       0.43750000       0.18750000       0.06250000 </v>
   <v>      -0.43750000       0.18750000       0.06250000 </v>
   <v>      -0.31250000       0.18750000       0.06250000 </v>
   <v>      -0.18750000       0.18750000       0.06250000 </v>
   <v>      -0.06250000       0.18750000       0.06250000 </v>
   <v>       0.31250000       0.31250000       0.06250000 </v>
   <v>       0.43750000       0.31250000       0.06250000 </v>
   <v>      -0.43750000       0.31250000       0.06250000 </v>
   <v>      -0.31250000       0.31250000       0.06250000 </v>
   <v>      -0.18750000       0.31250000       0.06250000 </v>
   <v>      -0.06250000       0.31250000       0.06250000 </v>
   <v>       0.43750000       0.43750000       0.06250000 </v>
   <v>      -0.43750000       0.43750000       0.06250000 </v>
   <v>      -0.31250000       0.43750000       0.06250000 </v>
   <v>      -0.18750000       0.43750000       0.06250000 </v>
   <v>      -0.06250000       0.43750000       0.06250000 </v>
   <v>      -0.43750000      -0.43750000       0.06250000 </v>
   <v>      -0.31250000      -0.43750000       0.06250000 </v>
   <v>      -0.18750000      -0.43750000       0.06250000 </v>
   <v>      -0.31250000      -0.31250000       0.06250000 </v>
   <v>      -0.18750000      -0.31250000       0.06250000 </v>
   <v>      -0.18750000      -0.18750000       0.06250000 </v>
   <v>       0.18750000       0.18750000       0.18750000 </v>
   <v>       0.31250000       0.18750000       0.18750000 </v>
   <v>       0.43750000       0.18750000       0.18750000 </v>
   <v>      -0.43750000       0.18750000       0.18750000 </v>
   <v>      -0.31250000       0.18750000       0.18750000 </v>
   <v>      -0.18750000       0.18750000       0.18750000 </v>
   <v>       0.31250000       0.31250000       0.18750000 </v>
   <v>       0.43750000       0.31250000       0.18750000 </v>
   <v>      -0.43750000       0.31250000       0.18750000 </v>
   <v>      -0.31250000       0.31250000       0.18750000 </v>
   <v>      -0.18750000       0.31250000       0.18750000 </v>
   <v>       0.43750000       0.43750000       0.18750000 </v>
   <v>      -0.43750000       0.43750000       0.18750000 </v>
   <v>      -0.31250000       0.43750000       0.18750000 </v>
   <v>      -0.18750000       0.43750000       0.18750000 </v>
   <v>      -0.43750000      -0.43750000       0.18750000 </v>
   <v>      -0.31250000      -0.43750000       0.18750000 </v>
   <v>      -0.31250000      -0.31250000       0.18750000 </v>
   <v>       0.31250000       0.31250000       0.31250000 </v>
   <v>       0.43750000       0.31250000       0.31250000 </v>
   <v>      -0.43750000       0.31250000       0.31250000 </v>
   <v>      -0.31250000       0.31250000       0.31250000 </v>
   <v>       0.43750000       0.43750000       0.31250000 </v>
   <v>      -0.43750000       0.43750000       0.31250000 </v>
   <v>      -0.31250000       0.43750000       0.31250000 </v>
   <v>      -0.43750000      -0.43750000       0.31250000 </v>
   <v>       0.43750000       0.43750000       0.43750000 </v>
   <v>      -0.43750000       0.43750000       0.43750000 </v>
  </varray>
  <varray name="weights" >
   <v>       0.00390625 </v>
   <v>       0.01171875 </v>
   <v>       0.01171875 </v>
   <v>       0.01171875 </v>
   <v>       0.01171875 </v>
   <v>       0.01171875 </v>
   <v>       0.01171875 </v>
   <v>       0.01171875 </v>
   <v>       0.01171875 </v>
   <v>       0.02343750 </v>
   <v>       0.02343750 </v>
   <v>       0.02343750 </v>
   <v>       0.02343750 </v>
   <v>       0.02343750 </v>
   <v>       0.02343750 </v>
   <v>       0.01171875 </v>
   <v>       0.02343750 </v>
   <v>       0.02343750 </v>
   <v>       0.02343750 </v>
   <v>       0.02343750 </v>
   <v>       0.02343750 </v>
   <v>       0.01171875 </v>
   <v>       0.02343750 </v>
   <v>       0.02343750 </v>
   <v>       0.02343750 </v>
   <v>       0.02343750 </v>
   <v>       0.01171875 </v>
   <v>       0.02343750 </v>
   <v>       0.02343750 </v>
   <v>       0.01171875 </v>
   <v>       0.02343750 </v>
   <v>       0.01171875 </v>
   <v>       0.00390625 </v>
   <v>       0.01171875 </v>
   <v>       0.01171875 </v>
   <v>       0.01171875 </v>
   <v>       0.01171875 </v>
   <v>       0.01171875 </v>
   <v>       0.01171875 </v>
   <v>       0.02343750 </v>
   <v>       0.02343750 </v>
   <v>       0.02343750 </v>
   <v>       0.02343750 </v>
   <v>       0.01171875 </v>
   <v>       0.02343750 </v>
   <v>       0.02343750 </v>
   <v>       0.02343750 </v>
   <v>       0.01171875 </v>
   <v>       0.02343750 </v>
   <v>       0.01171875 </v>
   <v>       0.00390625 </v>
   <v>       0.01171875 </v>
   <v>       0.01171875 </v>
   <v>       0.01171875 </v>
   <v>       0.01171875 </v>
   <v>       0.02343750 </v>
   <v>       0.02343750 </v>
   <v>       0.01171875 </v>
   <v>       0.00390625 </v>
   <v>       0.01171875 </v>
  </varray>
 </kpoints>
 <parameters>
  <separator name="general" >
   <i type="string" name="SYSTEM">unknown system</i>
   <i type="logical" name="LCOMPAT"> F  </i>
  </separator>
  <separator name="electronic" >
   <i type="string" name="PREC">normal</i>
   <i name="ENMAX">    350.00000000</i>
   <i name="ENAUG">    416.23000000</i>
   <i name="EDIFF">      0.00010000</i>
   <i type="int" name="IALGO">    38</i>
   <i type="int" name="IWAVPR">    11</i>
   <i type="int" name="NBANDS">     9</i>
   <i name="NELECT">     10.00000000</i>
   <i type="int" name="TURBO">     0</i>
   <i type="int" name="IRESTART">     0</i>
   <i type="int" name="NREBOOT">     0</i>
   <i type="int" name="NMIN">     0</i>
   <i name="EREF">      0.00000000</i>
   <separator name="electronic smearing" >
    <i type="int" name="ISMEAR">     1</i>
    <i name="SIGMA">      0.20000000</i>
    <i name="KSPACING">      0.50000000</i>
    <i type="logical" name="KGAMMA"> T  </i>
   </separator>
   <separator name="electronic projectors" >
    <i type="logical" name="LREAL"> F  </i>
    <v name="ROPT">      0.00000000</v>
    <i type="int" name="LMAXPAW">  -100</i>
    <i type="int" name="LMAXMIX">     2</i>
    <i type="logical" name="NLSPLINE"> F  </i>
   </separator>
   <separator name="electronic startup" >
    <i type="int" name="ISTART">     0</i>
    <i type="int" name="ICHARG">     2</i>
    <i type="int" name="INIWAV">     1</i>
   </separator>
   <separator name="electronic spin" >
    <i type="int" name="ISPIN">     1</i>
    <i type="logical" name="LNONCOLLINEAR"> F  </i>
    <v name="MAGMOM">      1.00000000</v>
    <i name="NUPDOWN">     -1.00000000</i>
    <i type="logical" name="LSORBIT"> F  </i>
    <v name="SAXIS">      0.00000000      0.00000000      1.00000000</v>
    <i type="logical" name="LSPIRAL"> F  </i>
    <v name="QSPIRAL">      0.00000000      0.00000000      0.00000000</v>
    <i type="logical" name="LZEROZ"> F  </i>
   </separator>
   <separator name="electronic exchange-correlation" >
    <i type="logical" name="LASPH"> F  </i>
    <i type="logical" name="LMETAGGA"> F  </i>
   </separator>
   <separator name="electronic convergence" >
    <i type="int" name="NELM">    60</i>
    <i type="int" name="NELMDL">    -5</i>
    <i type="int" name="NELMIN">     2</i>
    <i name="ENINI">    350.00000000</i>
    <separator name="electronic convergence detail" >
     <i type="logical" name="LDIAG"> T  </i>
     <i type="logical" name="LSUBROT"> F  </i>
     <i name="WEIMIN">      0.00100000</i>
     <i name="EBREAK">      0.00000278</i>
     <i name="DEPER">      0.30000000</i>
     <i type="int" name="NRMM">     4</i>
     <i name="TIME">      0.40000000</i>
    </separator>
   </separator>
   <separator name="electronic mixer" >
    <i name="AMIX">      0.40000000</i>
    <i name="BMIX">      1.00000000</i>
    <i name="AMIN">      0.10000000</i>
    <i name="AMIX_MAG">      1.60000000</i>
    <i name="BMIX_MAG">      1.00000000</i>
    <separator name="electronic mixer details" >
     <i type="int" name="IMIX">     4</i>
     <i type="int" name="MAXMIX">   -45</i>
     <i name="WC">    100.00000000</i>
     <i type="int" name="INIMIX">     1</i>
     <i type="int" name="MIXPRE">     1</i>
     <i type="int" name="MREMOVE">     5</i>
    </separator>
   </separator>
   <separator name="electronic dipolcorrection" >
    <i type="logical" name="LDIPOL"> F  </i>
    <i type="logical" name="LMONO"> F  </i>
    <i type="int" name="IDIPOL">     0</i>
    <i name="EPSILON">      1.00000000</i>
    <v name="DIPOL">   -100.00000000   -100.00000000   -100.00000000</v>
    <i name="EFIELD">      0.00000000</i>
   </separator>
  </separator>
  <separator name="grids" >
   <i type="int" name="NGX">    12</i>
   <i type="int" name="NGY">    12</i>
   <i type="int" name="NGZ">    12</i>
   <i type="int" name="NGXF">    24</i>
   <i type="int" name="NGYF">    24</i>
   <i type="int" name="NGZF">    24</i>
   <i type="logical" name="ADDGRID"> F  </i>
  </separator>
  <separator name="ionic" >
   <i type="int" name="NSW">    30</i>
   <i type="int" name="IBRION">     2</i>
   <i type="int" name="ISIF">     2</i>
   <i name="PSTRESS">      0.00000000</i>
   <i name="EDIFFG">      0.00100000</i>
   <i type="int" name="NFREE">     1</i>
   <i name="POTIM">      0.50000000</i>
   <i name="SMASS">     -3.00000000</i>
   <i name="SCALEE">      1.00000000</i>
  </separator>
  <separator name="ionic md" >
   <i name="TEBEG">      0.00010000</i>
   <i name="TEEND">      0.00010000</i>
   <i type="int" name="NBLOCK">     1</i>
   <i type="int" name="KBLOCK">    30</i>
   <i type="int" name="NPACO">   256</i>
   <i name="APACO">     16.00000000</i>
  </separator>
  <separator name="symmetry" >
   <i type="int" name="ISYM">     2</i>
   <i name="SYMPREC">      0.00001000</i>
  </separator>
  <separator name="dos" >
   <i type="logical" name="LORBIT"> F  </i>
   <v name="RWIGS">     -1.00000000</v>
   <i type="int" name="NEDOS">   301</i>
   <i name="EMIN">     10.00000000</i>
   <i name="EMAX">    -10.00000000</i>
   <i name="EFERMI">      0.00000000</i>
  </separator>
  <separator name="writing" >
   <i type="int" name="NWRITE">     2</i>
   <i type="logical" name="LWAVE"> T  </i>
   <i type="logical" name="LCHARG"> T  </i>
   <i type="logical" name="LPARD"> F  </i>
   <i type="logical" name="LVTOT"> F  </i>
   <i type="logical" name="LVHAR"> F  </i>
   <i type="logical" name="LELF"> F  </i>
   <i type="logical" name="LOPTICS"> F  </i>
   <v name="STM">      0.00000000      0.00000000      0.00000000      0.00000000      0.00000000      0.00000000      0.00000000</v>
  </separator>
  <separator name="performance" >
   <i type="int" name="NPAR">     1</i>
   <i type="int" name="NSIM">     4</i>
   <i type="int" name="NBLK">    -1</i>
   <i type="logical" name="LPLANE"> T  </i>
   <i type="logical" name="LSCALAPACK"> F  </i>
   <i type="logical" name="LSCAAWARE"> F  </i>
   <i type="logical" name="LSCALU"> F  </i>
   <i type="logical" name="LASYNC"> F  </i>
   <i type="logical" name="LORBITALREAL"> F  </i>
  </separator>
  <separator name="miscellaneous" >
   <i type="int" name="IDIOT">     3</i>
   <i type="logical" name="LMUSIC"> F  </i>
   <v name="POMASS">    106.42000000</v>
   <v name="DARWINR">      0.00000000</v>
   <v name="DARWINV">      1.00000000</v>
   <i type="logical" name="LCORR"> T  </i>
  </separator>
  <i type="logical" name="GGA_COMPAT"> T  </i>
  <i type="logical" name="LBERRY"> F  </i>
  <i type="int" name="ICORELEVEL">     0</i>
  <i type="logical" name="LDAU"> F  </i>
  <i type="int" name="I_CONSTRAINED_M">     0</i>
  <separator name="electronic exchange-correlation" >
   <i type="string" name="GGA">--</i>
   <i type="int" name="VOSKOWN">     0</i>
   <i type="logical" name="LHFCALC"> F  </i>
   <i type="string" name="PRECFOCK"></i>
   <i type="logical" name="LSYMGRAD"> F  </i>
   <i type="logical" name="LHFONE"> F  </i>
   <i type="logical" name="LRHFCALC"> F  </i>
   <i type="logical" name="LTHOMAS"> F  </i>
   <i type="logical" name="LMODELHF"> F  </i>
   <i name="ENCUT4O">     -1.00000000</i>
   <i type="int" name="EXXOEP">     0</i>
   <i type="int" name="FOURORBIT">     0</i>
   <i name="AEXX">      0.00000000</i>
   <i name="HFALPHA">      0.00000000</i>
   <i name="MCALPHA">      0.00000000</i>
   <i name="ALDAX">      1.00000000</i>
   <i name="AGGAX">      1.00000000</i>
   <i name="ALDAC">      1.00000000</i>
   <i name="AGGAC">      1.00000000</i>
   <i type="int" name="NKREDX">     1</i>
   <i type="int" name="NKREDY">     1</i>
   <i type="int" name="NKREDZ">     1</i>
   <i type="logical" name="SHIFTRED"> F  </i>
   <i type="logical" name="ODDONLY"> F  </i>
   <i type="logical" name="EVENONLY"> F  </i>
   <i type="int" name="LMAXFOCK">     0</i>
   <i type="int" name="NMAXFOCKAE">     0</i>
   <i type="logical" name="LFOCKAEDFT"> F  </i>
   <i name="HFSCREEN">      0.00000000</i>
   <i name="HFSCREENC">      0.00000000</i>
   <i type="int" name="NBANDSGWLOW">     0</i>
  </separator>
  <separator name="vdW DFT" >
   <i type="logical" name="LUSE_VDW"> F  </i>
   <i name="Zab_VDW">     -0.84910000</i>
   <i name="PARAM1">      0.12340000</i>
   <i name="PARAM2">      1.00000000</i>
   <i name="PARAM3">      0.00000000</i>
  </separator>
  <separator name="model GW" >
   <i type="int" name="MODEL_GW">     0</i>
   <i name="MODEL_EPS0">      8.31033039</i>
   <i name="MODEL_ALPHA">      1.00000000</i>
  </separator>
  <separator name="linear response parameters" >
   <i type="logical" name="LEPSILON"> F  </i>
   <i type="logical" name="LRPA"> F  </i>
   <i type="logical" name="LNABLA"> F  </i>
   <i type="logical" name="LVEL"> F  </i>
   <i type="int" name="KINTER">     0</i>
   <i name="CSHIFT">      0.10000000</i>
   <i name="OMEGAMAX">     -1.00000000</i>
   <i name="DEG_THRESHOLD">      0.00200000</i>
  </separator>
  <separator name="orbital magnetization" >
   <i type="logical" name="NUCIND"> F  </i>
   <v name="MAGPOS">      0.00000000      0.00000000      0.00000000</v>
   <i type="logical" name="LNICSALL"> T  </i>
   <i type="logical" name="ORBITALMAG"> F  </i>
   <i type="logical" name="LMAGBLOCH"> F  </i>
   <i type="logical" name="LCHIMAG"> F  </i>
   <i type="logical" name="LGAUGE"> T  </i>
   <i type="int" name="MAGATOM">     0</i>
   <v name="MAGDIPOL">      0.00000000      0.00000000      0.00000000</v>
   <v name="AVECCONST">      0.00000000      0.00000000      0.00000000</v>
  </separator>
  <separator name="response functions" >
   <i type="logical" name="LADDER"> F  </i>
   <i type="logical" name="LFXC"> F  </i>
   <i type="logical" name="LHARTREE"> T  </i>
   <i type="int" name="IBSE">     0</i>
   <i type="logical" name="LTCTE"> F  </i>
   <i type="logical" name="LTETE"> F  </i>
   <i type="logical" name="LTRIPLET"> F  </i>
   <i type="logical" name="LFXCEPS"> F  </i>
   <i type="logical" name="LFXHEG"> F  </i>
   <i type="logical" name="L2ORDER"> F  </i>
   <i type="logical" name="LUSEW"> F  </i>
   <i name="ENCUTGW">     -2.00000000</i>
   <i name="ENCUTGWSOFT">     -2.00000000</i>
   <i name="ENCUTLF">     -1.00000000</i>
   <i type="int" name="LMAXMP2">    -1</i>
   <i name="SCISSOR">      0.00000000</i>
   <i type="int" name="NOMEGA">     0</i>
   <i type="int" name="NOMEGAR">     0</i>
   <i type="int" name="NBANDSGW">    -1</i>
   <i type="int" name="NBANDSO">    -1</i>
   <i type="int" name="NBANDSV">    -1</i>
   <i type="int" name="NELM">     1</i>
   <i type="int" name="DIM">     3</i>
   <i type="int" name="ANTIRES">     0</i>
   <i name="OMEGAMAX">    -30.00000000</i>
   <i name="OMEGAMIN">    -30.00000000</i>
   <i name="OMEGATL">   -200.00000000</i>
   <i type="int" name="OMEGAGRID">     0</i>
   <i name="CSHIFT">     -0.10000000</i>
   <i type="logical" name="SELFENERGY"> F  </i>
   <i type="logical" name="LSPECTRAL"> F  </i>
   <i type="logical" name="ODDONLYGW"> F  </i>
   <i type="logical" name="EVENONLYGW"> F  </i>
   <i type="int" name="NKREDLFX">     1</i>
   <i type="int" name="NKREDLFY">     1</i>
   <i type="int" name="NKREDLFZ">     1</i>
   <i type="int" name="MAXMEM">  1800</i>
   <i type="int" name="TELESCOPE">     0</i>
   <i type="int" name="TAUPAR">     1</i>
  </separator>
  <separator name="External order field" >
   <i name="OFIELD_KAPPA">      0.00000000</i>
   <v name="OFIELD_K">      0.00000000      0.00000000      0.00000000</v>
   <i name="OFIELD_Q6_NEAR">      0.00000000</i>
   <i name="OFIELD_Q6_FAR">      0.00000000</i>
   <i name="OFIELD_A">      0.00000000</i>
  </separator>
 </parameters>
 <atominfo>
  <atoms>       1 </atoms>
  <types>       1 </types>
  <array name="atoms" >
   <dimension dim="1">ion</dimension>
   <field type="string">element</field>
   <field type="int">atomtype</field>
   <set>
    <rc><c>Pd</c><c>   1</c></rc>
   </set>
  </array>
  <array name="atomtypes" >
   <dimension dim="1">type</dimension>
   <field type="int">atomspertype</field>
   <field type="string">element</field>
   <field>mass</field>
   <field>valence</field>
   <field type="string">pseudopotential</field>
   <set>
    <rc><c>   1</c><c>Pd</c><c>    106.42000000</c><c>     10.00000000</c><c>  PAW_PBE Pd 04Jan2005                  </c></rc>
   </set>
  </array>
 </atominfo>
 <structure name="initialpos" >
  <crystal>
   <varray name="basis" >
    <v>       2.69563247       0.00000000       0.00000000 </v>
    <v>       1.34781624       2.33448620       0.00000000 </v>
    <v>       1.34781624       0.77816207       2.20097470 </v>
   </varray>
   <i name="volume">     13.85055065 </i>
   <varray name="rec_basis" >
    <v>       0.37097045      -0.21417989      -0.15144805 </v>
    <v>       0.00000000       0.42835978      -0.15144805 </v>
    <v>       0.00000000       0.00000000       0.45434416 </v>
   </varray>
  </crystal>
  <varray name="positions" >
   <v>       0.00000000       0.00000000       0.00000000 </v>
  </varray>
 </structure>
 <calculation>
  <scstep>
   <time name="dav">    0.34    0.34</time>
   <time name="total">    0.36    0.36</time>
   <energy>
    <i name="alphaZ">     47.05605333 </i>
    <i name="ewald">   -865.91781710 </i>
    <i name="hartreedc">   -116.10120823 </i>
    <i name="XCdc">    -28.89371233 </i>
    <i name="pawpsdc">    806.73831454 </i>
    <i name="pawaedc">   -744.51602449 </i>
    <i name="eentropy">     -0.00341271 </i>
    <i name="bandstr">    119.49660508 </i>
    <i name="atom">    809.72612850 </i>
    <i name="e_fr_energy">     27.58492660 </i>
    <i name="e_wo_entrp">     27.58833931 </i>
    <i name="e_0_energy">     27.58606417 </i>
   </energy>
  </scstep>
  <scstep>
   <time name="dav">    0.35    0.35</time>
   <time name="total">    0.36    0.36</time>
   <energy>
    <i name="e_fr_energy">     -5.14343221 </i>
    <i name="e_wo_entrp">     -5.13677996 </i>
    <i name="e_0_energy">     -5.14121479 </i>
   </energy>
  </scstep>
  <scstep>
   <time name="dav">    0.40    0.40</time>
   <time name="total">    0.40    0.40</time>
   <energy>
    <i name="e_fr_energy">     -5.41012118 </i>
    <i name="e_wo_entrp">     -5.40183906 </i>
    <i name="e_0_energy">     -5.40736047 </i>
   </energy>
  </scstep>
  <scstep>
   <time name="dav">    0.38    0.38</time>
   <time name="total">    0.38    0.45</time>
   <energy>
    <i name="e_fr_energy">     -5.41142521 </i>
    <i name="e_wo_entrp">     -5.40313201 </i>
    <i name="e_0_energy">     -5.40866081 </i>
   </energy>
  </scstep>
  <scstep>
   <time name="dav">    0.38    0.38</time>
   <time name="total">    0.41    0.43</time>
   <energy>
    <i name="e_fr_energy">     -5.41144007 </i>
    <i name="e_wo_entrp">     -5.40314665 </i>
    <i name="e_0_energy">     -5.40867560 </i>
   </energy>
  </scstep>
  <scstep>
   <time name="dav">    0.33    0.33</time>
   <time name="total">    0.38    0.40</time>
   <energy>
    <i name="e_fr_energy">     -5.14472263 </i>
    <i name="e_wo_entrp">     -5.14062034 </i>
    <i name="e_0_energy">     -5.14335520 </i>
   </energy>
  </scstep>
  <scstep>
   <time name="dav">    0.37    0.37</time>
   <time name="total">    0.42    0.46</time>
   <energy>
    <i name="e_fr_energy">     -5.12901987 </i>
    <i name="e_wo_entrp">     -5.12512944 </i>
    <i name="e_0_energy">     -5.12772306 </i>
   </energy>
  </scstep>
  <scstep>
   <time name="dav">    0.36    0.36</time>
   <time name="total">    0.42    0.44</time>
   <energy>
    <i name="e_fr_energy">     -5.12452451 </i>
    <i name="e_wo_entrp">     -5.12066755 </i>
    <i name="e_0_energy">     -5.12323886 </i>
   </energy>
  </scstep>
  <scstep>
   <time name="dav">    0.23    0.23</time>
   <time name="total">    0.25    0.28</time>
   <energy>
    <i name="alphaZ">     47.05605333 </i>
    <i name="ewald">   -865.91781710 </i>
    <i name="hartreedc">   -105.88448152 </i>
    <i name="XCdc">    -29.16928593 </i>
    <i name="pawpsdc">   1013.22025293 </i>
    <i name="pawaedc">   -954.30216197 </i>
    <i name="eentropy">     -0.00385768 </i>
    <i name="bandstr">     80.15064630 </i>
    <i name="atom">    809.72612850 </i>
    <i name="e_fr_energy">     -5.12452313 </i>
    <i name="e_wo_entrp">     -5.12066545 </i>
    <i name="e_0_energy">     -5.12323724 </i>
   </energy>
  </scstep>
  <structure>
   <crystal>
    <varray name="basis" >
     <v>       2.69563247       0.00000000       0.00000000 </v>
     <v>       1.34781624       2.33448620       0.00000000 </v>
     <v>       1.34781624       0.77816207       2.20097470 </v>
    </varray>
    <i name="volume">     13.85055065 </i>
    <varray name="rec_basis" >
     <v>       0.37097045      -0.21417989      -0.15144805 </v>
     <v>       0.00000000       0.42835978      -0.15144805 </v>
     <v>       0.00000000       0.00000000       0.45434416 </v>
    </varray>
   </crystal>
   <varray name="positions" >
    <v>       0.00000000       0.00000000       0.00000000 </v>
   </varray>
  </structure>
  <varray name="forces" >
   <v>       0.00000000       0.00000000       0.00000000 </v>
  </varray>
  <varray name="stress" >
   <v>     208.48768029       0.00000000       0.00000000 </v>
   <v>       0.00000000     208.48768029       0.00000000 </v>
   <v>       0.00000000       0.00000000     208.48768029 </v>
  </varray>
  <energy>
   <i name="e_fr_energy">     -5.12452313 </i>
   <i name="e_wo_entrp">     -5.12323724 </i>
   <i name="e_0_energy">     -0.00385768 </i>
  </energy>
  <time name="totalsc">    3.78    4.34</time>
  <eigenvalues>
   <array>
    <dimension dim="1">band</dimension>
    <dimension dim="2">kpoint</dimension>
    <dimension dim="3">spin</dimension>
    <field>eigene</field>
    <field>occ</field>
    <set>
     <set comment="spin 1">
      <set comment="kpoint 1">
       <r>    3.3953    1.0000 </r>
       <r>    7.7047    1.0000 </r>
       <r>    7.8158    1.0000 </r>
       <r>    7.8158    1.0000 </r>
       <r>    9.5227    1.0000 </r>
       <r>    9.5227    1.0000 </r>
       <r>   28.2695    0.0000 </r>
       <r>   32.2926    0.0000 </r>
       <r>   33.4177    0.0000 </r>
      </set>
      <set comment="kpoint 2">
       <r>    4.1381    1.0000 </r>
       <r>    7.4363    1.0000 </r>
       <r>    8.0478    1.0000 </r>
       <r>    8.0760    1.0000 </r>
       <r>    9.2678    1.0000 </r>
       <r>    9.6482    1.0000 </r>
       <r>   28.8594    0.0000 </r>
       <r>   29.8348    0.0000 </r>
       <r>   33.2071    0.0000 </r>
      </set>
      <set comment="kpoint 3">
       <r>    5.2304    1.0000 </r>
       <r>    7.6993    1.0000 </r>
       <r>    8.0855    1.0000 </r>
       <r>    8.1319    1.0000 </r>
       <r>    9.5301    1.0000 </r>
       <r>   10.2587    1.0000 </r>
       <r>   25.2765    0.0000 </r>
       <r>   29.1385    0.0000 </r>
       <r>   33.5274    0.0000 </r>
      </set>
      <set comment="kpoint 4">
       <r>    5.2754    1.0000 </r>
       <r>    7.7396    1.0000 </r>
       <r>    7.8699    1.0000 </r>
       <r>    9.5648    1.0000 </r>
       <r>   10.4039    1.0010 </r>
       <r>   11.5497    0.0000 </r>
       <r>   20.7767    0.0000 </r>
       <r>   27.9809    0.0000 </r>
       <r>   32.1177    0.0000 </r>
      </set>
      <set comment="kpoint 5">
       <r>    5.1920    1.0000 </r>
       <r>    7.6162    1.0000 </r>
       <r>    7.8000    1.0000 </r>
       <r>   10.1015    1.0000 </r>
       <r>   10.8902    0.5923 </r>
       <r>   12.5368    0.0000 </r>
       <r>   18.8286    0.0000 </r>
       <r>   27.6069    0.0000 </r>
       <r>   32.1565    0.0000 </r>
      </set>
      <set comment="kpoint 6">
       <r>    5.3171    1.0000 </r>
       <r>    7.7984    1.0000 </r>
       <r>    7.9912    1.0000 </r>
       <r>    8.8401    1.0000 </r>
       <r>   10.5516    1.0143 </r>
       <r>   10.7167    1.0226 </r>
       <r>   22.1985    0.0000 </r>
       <r>   28.3836    0.0000 </r>
       <r>   32.7889    0.0000 </r>
      </set>
      <set comment="kpoint 7">
       <r>    4.9507    1.0000 </r>
       <r>    7.4060    1.0000 </r>
       <r>    8.1220    1.0000 </r>
       <r>    8.1884    1.0000 </r>
       <r>    9.4546    1.0000 </r>
       <r>    9.8700    1.0000 </r>
       <r>   26.7762    0.0000 </r>
       <r>   29.4952    0.0000 </r>
       <r>   33.6330    0.0000 </r>
      </set>
      <set comment="kpoint 8">
       <r>    3.7819    1.0000 </r>
       <r>    7.5043    1.0000 </r>
       <r>    7.9803    1.0000 </r>
       <r>    7.9870    1.0000 </r>
       <r>    9.3027    1.0000 </r>
       <r>    9.6254    1.0000 </r>
       <r>   28.6979    0.0000 </r>
       <r>   31.1116    0.0000 </r>
       <r>   33.2287    0.0000 </r>
      </set>
      <set comment="kpoint 9">
       <r>    4.4875    1.0000 </r>
       <r>    7.1248    1.0000 </r>
       <r>    8.2904    1.0000 </r>
       <r>    8.3229    1.0000 </r>
       <r>    9.0131    1.0000 </r>
       <r>    9.8194    1.0000 </r>
       <r>   29.3478    0.0000 </r>
       <r>   30.1114    0.0000 </r>
       <r>   32.4042    0.0000 </r>
      </set>
      <set comment="kpoint 10">
       <r>    5.5273    1.0000 </r>
       <r>    6.7967    1.0000 </r>
       <r>    8.0576    1.0000 </r>
       <r>    8.7378    1.0000 </r>
       <r>    9.4312    1.0000 </r>
       <r>   10.4019    1.0009 </r>
       <r>   27.2263    0.0000 </r>
       <r>   29.1573    0.0000 </r>
       <r>   31.6496    0.0000 </r>
      </set>
      <set comment="kpoint 11">
       <r>    5.8011    1.0000 </r>
       <r>    7.3657    1.0000 </r>
       <r>    7.7937    1.0000 </r>
       <r>    8.5754    1.0000 </r>
       <r>   10.5067    1.0073 </r>
       <r>   12.1736    0.0000 </r>
       <r>   22.5128    0.0000 </r>
       <r>   28.3047    0.0000 </r>
       <r>   29.8852    0.0000 </r>
      </set>
      <set comment="kpoint 12">
       <r>    5.7166    1.0000 </r>
       <r>    7.1791    1.0000 </r>
       <r>    8.3179    1.0000 </r>
       <r>    8.7069    1.0000 </r>
       <r>   10.8120    0.8706 </r>
       <r>   14.6549    0.0000 </r>
       <r>   18.8117    0.0000 </r>
       <r>   27.6025    0.0000 </r>
       <r>   29.4336    0.0000 </r>
      </set>
      <set comment="kpoint 13">
       <r>    5.8551    1.0000 </r>
       <r>    7.3424    1.0000 </r>
       <r>    8.1731    1.0000 </r>
       <r>    8.4864    1.0000 </r>
       <r>   10.2730    1.0000 </r>
       <r>   13.2588    0.0000 </r>
       <r>   21.1025    0.0000 </r>
       <r>   27.3756    0.0000 </r>
       <r>   29.9017    0.0000 </r>
      </set>
      <set comment="kpoint 14">
       <r>    5.8919    1.0000 </r>
       <r>    7.0282    1.0000 </r>
       <r>    7.8328    1.0000 </r>
       <r>    8.6838    1.0000 </r>
       <r>    9.2559    1.0000 </r>
       <r>   11.1928   -0.0317 </r>
       <r>   25.7028    0.0000 </r>
       <r>   27.8913    0.0000 </r>
       <r>   31.7212    0.0000 </r>
      </set>
      <set comment="kpoint 15">
       <r>    4.7847    1.0000 </r>
       <r>    7.1720    1.0000 </r>
       <r>    8.1797    1.0000 </r>
       <r>    8.3199    1.0000 </r>
       <r>    9.1251    1.0000 </r>
       <r>    9.9377    1.0000 </r>
       <r>   28.3045    0.0000 </r>
       <r>   29.4273    0.0000 </r>
       <r>   32.7542    0.0000 </r>
      </set>
      <set comment="kpoint 16">
       <r>    5.6879    1.0000 </r>
       <r>    6.1950    1.0000 </r>
       <r>    8.7928    1.0000 </r>
       <r>    9.3857    1.0000 </r>
       <r>   10.0343    1.0000 </r>
       <r>   10.3780    1.0005 </r>
       <r>   27.6205    0.0000 </r>
       <r>   28.8080    0.0000 </r>
       <r>   29.2096    0.0000 </r>
      </set>
      <set comment="kpoint 17">
       <r>    5.7526    1.0000 </r>
       <r>    6.0338    1.0000 </r>
       <r>    8.6841    1.0000 </r>
       <r>    9.8488    1.0000 </r>
       <r>   10.5931    1.0233 </r>
       <r>   12.4444    0.0000 </r>
       <r>   24.6658    0.0000 </r>
       <r>   26.6341    0.0000 </r>
       <r>   27.1040    0.0000 </r>
      </set>
      <set comment="kpoint 18">
       <r>    5.8527    1.0000 </r>
       <r>    6.5012    1.0000 </r>
       <r>    8.2571    1.0000 </r>
       <r>    9.4378    1.0000 </r>
       <r>   10.8988    0.5565 </r>
       <r>   16.0079    0.0000 </r>
       <r>   20.1841    0.0000 </r>
       <r>   24.9706    0.0000 </r>
       <r>   27.0571    0.0000 </r>
      </set>
      <set comment="kpoint 19">
       <r>    6.3400    1.0000 </r>
       <r>    6.9730    1.0000 </r>
       <r>    7.6354    1.0000 </r>
       <r>    9.1487    1.0000 </r>
       <r>   10.3250    1.0001 </r>
       <r>   16.2417    0.0000 </r>
       <r>   20.6589    0.0000 </r>
       <r>   23.4451    0.0000 </r>
       <r>   28.7824    0.0000 </r>
      </set>
      <set comment="kpoint 20">
       <r>    6.4716    1.0000 </r>
       <r>    7.1768    1.0000 </r>
       <r>    7.3988    1.0000 </r>
       <r>    8.8891    1.0000 </r>
       <r>    9.7308    1.0000 </r>
       <r>   13.3991    0.0000 </r>
       <r>   23.1014    0.0000 </r>
       <r>   25.3884    0.0000 </r>
       <r>   30.0808    0.0000 </r>
      </set>
      <set comment="kpoint 21">
       <r>    5.5446    1.0000 </r>
       <r>    7.7602    1.0000 </r>
       <r>    7.8715    1.0000 </r>
       <r>    8.2663    1.0000 </r>
       <r>    9.9142    1.0000 </r>
       <r>   10.9922    0.1897 </r>
       <r>   23.8727    0.0000 </r>
       <r>   28.7623    0.0000 </r>
       <r>   31.8163    0.0000 </r>
      </set>
      <set comment="kpoint 22">
       <r>    5.2235    1.0000 </r>
       <r>    5.4948    1.0000 </r>
       <r>   10.3910    1.0007 </r>
       <r>   10.4921    1.0057 </r>
       <r>   10.9565    0.3175 </r>
       <r>   13.0115    0.0000 </r>
       <r>   24.4413    0.0000 </r>
       <r>   24.8397    0.0000 </r>
       <r>   25.5389    0.0000 </r>
      </set>
      <set comment="kpoint 23">
       <r>    5.2709    1.0000 </r>
       <r>    5.5923    1.0000 </r>
       <r>    9.8228    1.0000 </r>
       <r>   10.4549    1.0029 </r>
       <r>   11.1447   -0.0348 </r>
       <r>   15.6832    0.0000 </r>
       <r>   22.3918    0.0000 </r>
       <r>   23.0861    0.0000 </r>
       <r>   24.7606    0.0000 </r>
      </set>
      <set comment="kpoint 24">
       <r>    5.7535    1.0000 </r>
       <r>    6.3532    1.0000 </r>
       <r>    8.4978    1.0000 </r>
       <r>    9.7373    1.0000 </r>
       <r>   10.8414    0.7797 </r>
       <r>   18.0111    0.0000 </r>
       <r>   19.5535    0.0000 </r>
       <r>   22.7522    0.0000 </r>
       <r>   26.6363    0.0000 </r>
      </set>
      <set comment="kpoint 25">
       <r>    6.0999    1.0000 </r>
       <r>    6.9249    1.0000 </r>
       <r>    8.1469    1.0000 </r>
       <r>    8.7500    1.0000 </r>
       <r>   10.6183    1.0290 </r>
       <r>   15.9723    0.0000 </r>
       <r>   18.9824    0.0000 </r>
       <r>   25.8626    0.0000 </r>
       <r>   28.8378    0.0000 </r>
      </set>
      <set comment="kpoint 26">
       <r>    5.4174    1.0000 </r>
       <r>    7.4982    1.0000 </r>
       <r>    8.0055    1.0000 </r>
       <r>    9.2498    1.0000 </r>
       <r>   10.7295    1.0137 </r>
       <r>   12.9365    0.0000 </r>
       <r>   19.6091    0.0000 </r>
       <r>   27.8672    0.0000 </r>
       <r>   30.9003    0.0000 </r>
      </set>
      <set comment="kpoint 27">
       <r>    5.0308    1.0000 </r>
       <r>    5.3407    1.0000 </r>
       <r>   10.7406    1.0034 </r>
       <r>   10.8255    0.8315 </r>
       <r>   11.1688   -0.0350 </r>
       <r>   14.4467    0.0000 </r>
       <r>   22.6045    0.0000 </r>
       <r>   24.0305    0.0000 </r>
       <r>   24.7500    0.0000 </r>
      </set>
      <set comment="kpoint 28">
       <r>    5.4621    1.0000 </r>
       <r>    5.7408    1.0000 </r>
       <r>    9.3478    1.0000 </r>
       <r>   10.3088    1.0001 </r>
       <r>   10.9208    0.4636 </r>
       <r>   14.1649    0.0000 </r>
       <r>   23.4497    0.0000 </r>
       <r>   24.6470    0.0000 </r>
       <r>   25.4357    0.0000 </r>
      </set>
      <set comment="kpoint 29">
       <r>    5.9081    1.0000 </r>
       <r>    6.8520    1.0000 </r>
       <r>    7.9644    1.0000 </r>
       <r>    8.9999    1.0000 </r>
       <r>   10.8316    0.8122 </r>
       <r>   13.9178    0.0000 </r>
       <r>   21.2332    0.0000 </r>
       <r>   27.2872    0.0000 </r>
       <r>   27.9708    0.0000 </r>
      </set>
      <set comment="kpoint 30">
       <r>    5.5250    1.0000 </r>
       <r>    5.7904    1.0000 </r>
       <r>    9.6327    1.0000 </r>
       <r>    9.9941    1.0000 </r>
       <r>   10.6768    1.0351 </r>
       <r>   11.3286   -0.0061 </r>
       <r>   26.0960    0.0000 </r>
       <r>   26.9663    0.0000 </r>
       <r>   27.0057    0.0000 </r>
      </set>
      <set comment="kpoint 31">
       <r>    5.9110    1.0000 </r>
       <r>    6.4090    1.0000 </r>
       <r>    8.1176    1.0000 </r>
       <r>    9.2673    1.0000 </r>
       <r>   10.0800    1.0000 </r>
       <r>   11.1426   -0.0346 </r>
       <r>   26.0057    0.0000 </r>
       <r>   28.0629    0.0000 </r>
       <r>   29.5148    0.0000 </r>
      </set>
      <set comment="kpoint 32">
       <r>    5.2909    1.0000 </r>
       <r>    6.6606    1.0000 </r>
       <r>    8.4272    1.0000 </r>
       <r>    8.8025    1.0000 </r>
       <r>    9.2159    1.0000 </r>
       <r>   10.0809    1.0000 </r>
       <r>   28.8622    0.0000 </r>
       <r>   30.2644    0.0000 </r>
       <r>   30.7735    0.0000 </r>
      </set>
      <set comment="kpoint 33">
       <r>    4.4334    1.0000 </r>
       <r>    7.4880    1.0000 </r>
       <r>    8.0757    1.0000 </r>
       <r>    8.0757    1.0000 </r>
       <r>    9.4970    1.0000 </r>
       <r>    9.4970    1.0000 </r>
       <r>   28.0533    0.0000 </r>
       <r>   29.4485    0.0000 </r>
       <r>   34.7238    0.0000 </r>
      </set>
      <set comment="kpoint 34">
       <r>    5.3071    1.0000 </r>
       <r>    7.1597    1.0000 </r>
       <r>    8.1028    1.0000 </r>
       <r>    8.4230    1.0000 </r>
       <r>    9.0270    1.0000 </r>
       <r>   10.4359    1.0019 </r>
       <r>   26.9559    0.0000 </r>
       <r>   28.8003    0.0000 </r>
       <r>   32.9941    0.0000 </r>
      </set>
      <set comment="kpoint 35">
       <r>    6.2232    1.0000 </r>
       <r>    7.2009    1.0000 </r>
       <r>    7.7364    1.0000 </r>
       <r>    8.6136    1.0000 </r>
       <r>    9.3057    1.0000 </r>
       <r>   12.1845    0.0000 </r>
       <r>   24.3466    0.0000 </r>
       <r>   26.6146    0.0000 </r>
       <r>   31.2241    0.0000 </r>
      </set>
      <set comment="kpoint 36">
       <r>    5.9482    1.0000 </r>
       <r>    7.1840    1.0000 </r>
       <r>    8.4157    1.0000 </r>
       <r>    8.4353    1.0000 </r>
       <r>   10.3542    1.0003 </r>
       <r>   14.5104    0.0000 </r>
       <r>   19.9059    0.0000 </r>
       <r>   26.4999    0.0000 </r>
       <r>   30.2155    0.0000 </r>
      </set>
      <set comment="kpoint 37">
       <r>    5.7709    1.0000 </r>
       <r>    7.1059    1.0000 </r>
       <r>    8.3197    1.0000 </r>
       <r>    8.5380    1.0000 </r>
       <r>   10.9432    0.3704 </r>
       <r>   14.3084    0.0000 </r>
       <r>   19.6870    0.0000 </r>
       <r>   27.4029    0.0000 </r>
       <r>   29.8997    0.0000 </r>
      </set>
      <set comment="kpoint 38">
       <r>    5.8098    1.0000 </r>
       <r>    6.8634    1.0000 </r>
       <r>    7.9460    1.0000 </r>
       <r>    8.7938    1.0000 </r>
       <r>   10.6763    1.0351 </r>
       <r>   11.2847   -0.0122 </r>
       <r>   24.1662    0.0000 </r>
       <r>   28.9401    0.0000 </r>
       <r>   29.7420    0.0000 </r>
      </set>
      <set comment="kpoint 39">
       <r>    5.5102    1.0000 </r>
       <r>    7.1990    1.0000 </r>
       <r>    7.9494    1.0000 </r>
       <r>    8.4271    1.0000 </r>
       <r>   10.0491    1.0000 </r>
       <r>   10.2924    1.0001 </r>
       <r>   25.4978    0.0000 </r>
       <r>   29.4896    0.0000 </r>
       <r>   31.7182    0.0000 </r>
      </set>
      <set comment="kpoint 40">
       <r>    6.2363    1.0000 </r>
       <r>    6.8470    1.0000 </r>
       <r>    7.5255    1.0000 </r>
       <r>    9.1342    1.0000 </r>
       <r>    9.8252    1.0000 </r>
       <r>   12.2366    0.0000 </r>
       <r>   24.4602    0.0000 </r>
       <r>   26.7408    0.0000 </r>
       <r>   29.6989    0.0000 </r>
      </set>
      <set comment="kpoint 41">
       <r>    6.6252    1.0000 </r>
       <r>    6.7970    1.0000 </r>
       <r>    7.2973    1.0000 </r>
       <r>    9.2793    1.0000 </r>
       <r>   10.2799    1.0000 </r>
       <r>   14.9603    0.0000 </r>
       <r>   21.9445    0.0000 </r>
       <r>   24.3560    0.0000 </r>
       <r>   27.9261    0.0000 </r>
      </set>
      <set comment="kpoint 42">
       <r>    6.2911    1.0000 </r>
       <r>    6.6835    1.0000 </r>
       <r>    7.7767    1.0000 </r>
       <r>    9.1669    1.0000 </r>
       <r>   10.7677    0.9676 </r>
       <r>   16.9950    0.0000 </r>
       <r>   19.0895    0.0000 </r>
       <r>   25.4698    0.0000 </r>
       <r>   26.2934    0.0000 </r>
      </set>
      <set comment="kpoint 43">
       <r>    6.1471    1.0000 </r>
       <r>    6.4888    1.0000 </r>
       <r>    7.7853    1.0000 </r>
       <r>    9.6302    1.0000 </r>
       <r>   10.3792    1.0005 </r>
       <r>   13.7051    0.0000 </r>
       <r>   23.2394    0.0000 </r>
       <r>   25.5512    0.0000 </r>
       <r>   27.3668    0.0000 </r>
      </set>
      <set comment="kpoint 44">
       <r>    5.7555    1.0000 </r>
       <r>    6.4108    1.0000 </r>
       <r>    8.4118    1.0000 </r>
       <r>    9.2584    1.0000 </r>
       <r>   10.9411    0.3790 </r>
       <r>   12.9737    0.0000 </r>
       <r>   22.8245    0.0000 </r>
       <r>   27.1405    0.0000 </r>
       <r>   28.0703    0.0000 </r>
      </set>
      <set comment="kpoint 45">
       <r>    5.8845    1.0000 </r>
       <r>    6.1966    1.0000 </r>
       <r>    8.2773    1.0000 </r>
       <r>    9.9220    1.0000 </r>
       <r>   10.8311    0.8140 </r>
       <r>   15.5459    0.0000 </r>
       <r>   22.2020    0.0000 </r>
       <r>   24.4568    0.0000 </r>
       <r>   25.0164    0.0000 </r>
      </set>
      <set comment="kpoint 46">
       <r>    6.0891    1.0000 </r>
       <r>    6.7306    1.0000 </r>
       <r>    7.6103    1.0000 </r>
       <r>    9.4962    1.0000 </r>
       <r>   11.1332   -0.0329 </r>
       <r>   18.9045    0.0000 </r>
       <r>   20.3688    0.0000 </r>
       <r>   22.5989    0.0000 </r>
       <r>   23.6826    0.0000 </r>
      </set>
      <set comment="kpoint 47">
       <r>    6.3214    1.0000 </r>
       <r>    6.7405    1.0000 </r>
       <r>    7.4365    1.0000 </r>
       <r>    9.4809    1.0000 </r>
       <r>   10.7929    0.9184 </r>
       <r>   16.8916    0.0000 </r>
       <r>   20.9631    0.0000 </r>
       <r>   23.6108    0.0000 </r>
       <r>   25.3874    0.0000 </r>
      </set>
      <set comment="kpoint 48">
       <r>    5.4184    1.0000 </r>
       <r>    5.8889    1.0000 </r>
       <r>    9.3509    1.0000 </r>
       <r>   10.1410    1.0000 </r>
       <r>   10.9664    0.2798 </r>
       <r>   16.6364    0.0000 </r>
       <r>   21.0110    0.0000 </r>
       <r>   22.7192    0.0000 </r>
       <r>   26.2482    0.0000 </r>
      </set>
      <set comment="kpoint 49">
       <r>    5.6881    1.0000 </r>
       <r>    6.0698    1.0000 </r>
       <r>    8.6613    1.0000 </r>
       <r>    9.9468    1.0000 </r>
       <r>   11.1357   -0.0334 </r>
       <r>   17.2828    0.0000 </r>
       <r>   21.5596    0.0000 </r>
       <r>   22.6910    0.0000 </r>
       <r>   24.2085    0.0000 </r>
      </set>
      <set comment="kpoint 50">
       <r>    5.5653    1.0000 </r>
       <r>    6.0591    1.0000 </r>
       <r>    8.9802    1.0000 </r>
       <r>    9.7532    1.0000 </r>
       <r>   11.0296    0.0858 </r>
       <r>   14.9235    0.0000 </r>
       <r>   21.6835    0.0000 </r>
       <r>   24.7321    0.0000 </r>
       <r>   26.8723    0.0000 </r>
      </set>
      <set comment="kpoint 51">
       <r>    5.2144    1.0000 </r>
       <r>    7.9732    1.0000 </r>
       <r>    7.9732    1.0000 </r>
       <r>    8.5547    1.0000 </r>
       <r>   10.0761    1.0000 </r>
       <r>   10.0761    1.0000 </r>
       <r>   23.6604    0.0000 </r>
       <r>   28.7215    0.0000 </r>
       <r>   34.8931    0.0000 </r>
      </set>
      <set comment="kpoint 52">
       <r>    5.6588    1.0000 </r>
       <r>    7.6427    1.0000 </r>
       <r>    8.1793    1.0000 </r>
       <r>    8.3514    1.0000 </r>
       <r>    9.8724    1.0000 </r>
       <r>   11.9749    0.0000 </r>
       <r>   22.4184    0.0000 </r>
       <r>   28.0424    0.0000 </r>
       <r>   31.0140    0.0000 </r>
      </set>
      <set comment="kpoint 53">
       <r>    6.4457    1.0000 </r>
       <r>    7.1455    1.0000 </r>
       <r>    7.6315    1.0000 </r>
       <r>    8.8558    1.0000 </r>
       <r>    9.9215    1.0000 </r>
       <r>   14.6888    0.0000 </r>
       <r>   21.8598    0.0000 </r>
       <r>   24.2347    0.0000 </r>
       <r>   30.6698    0.0000 </r>
      </set>
      <set comment="kpoint 54">
       <r>    5.9641    1.0000 </r>
       <r>    6.7568    1.0000 </r>
       <r>    8.1190    1.0000 </r>
       <r>    9.4032    1.0000 </r>
       <r>   10.5206    1.0091 </r>
       <r>   17.6609    0.0000 </r>
       <r>   19.3548    0.0000 </r>
       <r>   22.9499    0.0000 </r>
       <r>   28.8050    0.0000 </r>
      </set>
      <set comment="kpoint 55">
       <r>    5.5247    1.0000 </r>
       <r>    7.4868    1.0000 </r>
       <r>    8.1867    1.0000 </r>
       <r>    8.5659    1.0000 </r>
       <r>   10.8630    0.7014 </r>
       <r>   12.3130    0.0000 </r>
       <r>   20.8610    0.0000 </r>
       <r>   28.2205    0.0000 </r>
       <r>   31.1085    0.0000 </r>
      </set>
      <set comment="kpoint 56">
       <r>    6.1095    1.0000 </r>
       <r>    6.9408    1.0000 </r>
       <r>    7.9778    1.0000 </r>
       <r>    8.8065    1.0000 </r>
       <r>   10.6295    1.0313 </r>
       <r>   14.9692    0.0000 </r>
       <r>   19.9432    0.0000 </r>
       <r>   26.7531    0.0000 </r>
       <r>   27.9890    0.0000 </r>
      </set>
      <set comment="kpoint 57">
       <r>    6.2133    1.0000 </r>
       <r>    6.7757    1.0000 </r>
       <r>    7.6316    1.0000 </r>
       <r>    9.3959    1.0000 </r>
       <r>   10.7932    0.9178 </r>
       <r>   18.1397    0.0000 </r>
       <r>   19.6115    0.0000 </r>
       <r>   23.0047    0.0000 </r>
       <r>   26.0627    0.0000 </r>
      </set>
      <set comment="kpoint 58">
       <r>    5.9384    1.0000 </r>
       <r>    6.8334    1.0000 </r>
       <r>    8.1774    1.0000 </r>
       <r>    8.9895    1.0000 </r>
       <r>   10.7885    0.9282 </r>
       <r>   16.4530    0.0000 </r>
       <r>   18.8714    0.0000 </r>
       <r>   25.2730    0.0000 </r>
       <r>   29.1514    0.0000 </r>
      </set>
      <set comment="kpoint 59">
       <r>    5.1187    1.0000 </r>
       <r>    7.7385    1.0000 </r>
       <r>    7.7385    1.0000 </r>
       <r>   10.7717    0.9607 </r>
       <r>   10.7717    0.9607 </r>
       <r>   11.1358   -0.0334 </r>
       <r>   19.5543    0.0000 </r>
       <r>   27.6223    0.0000 </r>
       <r>   32.9090    0.0000 </r>
      </set>
      <set comment="kpoint 60">
       <r>    5.4821    1.0000 </r>
       <r>    7.4000    1.0000 </r>
       <r>    8.0447    1.0000 </r>
       <r>    9.2625    1.0000 </r>
       <r>   10.7326    1.0111 </r>
       <r>   13.8290    0.0000 </r>
       <r>   18.8310    0.0000 </r>
       <r>   27.6802    0.0000 </r>
       <r>   30.6199    0.0000 </r>
      </set>
     </set>
    </set>
   </array>
  </eigenvalues>
  <separator name="orbital magnetization" >
   <v name="MAGDIPOLOUT">      0.00000000      0.00000000      0.00000000</v>
  </separator>
  <dos>
   <i name="efermi">     10.91220729 </i>
   <total>
    <array>
     <dimension dim="1">gridpoints</dimension>
     <dimension dim="2">spin</dimension>
     <field>energy</field>
     <field>total</field>
     <field>integrated</field>
     <set>
      <set comment="spin 1">
       <r>     1.3953     0.0000     0.0000 </r>
       <r>     1.5136     0.0000     0.0000 </r>
       <r>     1.6319     0.0000     0.0000 </r>
       <r>     1.7502     0.0000     0.0000 </r>
       <r>     1.8686     0.0000     0.0000 </r>
       <r>     1.9869     0.0000     0.0000 </r>
       <r>     2.1052     0.0000     0.0000 </r>
       <r>     2.2235     0.0000     0.0000 </r>
       <r>     2.3419     0.0000     0.0000 </r>
       <r>     2.4602     0.0000     0.0000 </r>
       <r>     2.5785     0.0000     0.0000 </r>
       <r>     2.6968     0.0000     0.0000 </r>
       <r>     2.8152     0.0000     0.0000 </r>
       <r>     2.9335    -0.0002     0.0000 </r>
       <r>     3.0518    -0.0010    -0.0001 </r>
       <r>     3.1701    -0.0011    -0.0003 </r>
       <r>     3.2885     0.0094     0.0008 </r>
       <r>     3.4068     0.0268     0.0040 </r>
       <r>     3.5251     0.0213     0.0065 </r>
       <r>     3.6435     0.0214     0.0091 </r>
       <r>     3.7618     0.0703     0.0174 </r>
       <r>     3.8801     0.0837     0.0273 </r>
       <r>     3.9984     0.0473     0.0329 </r>
       <r>     4.1168     0.0673     0.0408 </r>
       <r>     4.2351     0.0815     0.0505 </r>
       <r>     4.3534     0.0625     0.0579 </r>
       <r>     4.4717     0.0962     0.0693 </r>
       <r>     4.5901     0.1039     0.0815 </r>
       <r>     4.7084     0.1129     0.0949 </r>
       <r>     4.8267     0.1922     0.1176 </r>
       <r>     4.9450     0.2063     0.1421 </r>
       <r>     5.0634     0.2105     0.1670 </r>
       <r>     5.1817     0.4673     0.2223 </r>
       <r>     5.3000     0.9405     0.3335 </r>
       <r>     5.4183     1.2940     0.4866 </r>
       <r>     5.5367     1.5344     0.6682 </r>
       <r>     5.6550     1.7198     0.8717 </r>
       <r>     5.7733     2.1253     1.1232 </r>
       <r>     5.8917     2.3896     1.4059 </r>
       <r>     6.0100     2.0630     1.6500 </r>
       <r>     6.1283     1.8132     1.8646 </r>
       <r>     6.2466     1.8075     2.0785 </r>
       <r>     6.3650     1.6810     2.2774 </r>
       <r>     6.4833     1.3686     2.4393 </r>
       <r>     6.6016     1.0501     2.5636 </r>
       <r>     6.7199     1.3092     2.7185 </r>
       <r>     6.8383     1.8041     2.9319 </r>
       <r>     6.9566     1.6128     3.1228 </r>
       <r>     7.0749     1.2494     3.2706 </r>
       <r>     7.1932     1.3609     3.4317 </r>
       <r>     7.3116     1.4719     3.6058 </r>
       <r>     7.4299     1.5270     3.7865 </r>
       <r>     7.5482     1.6057     3.9765 </r>
       <r>     7.6665     1.7415     4.1826 </r>
       <r>     7.7849     2.0067     4.4200 </r>
       <r>     7.9032     2.0964     4.6681 </r>
       <r>     8.0215     2.2621     4.9357 </r>
       <r>     8.1398     2.6076     5.2443 </r>
       <r>     8.2582     2.5718     5.5486 </r>
       <r>     8.3765     2.1107     5.7984 </r>
       <r>     8.4948     1.6258     5.9907 </r>
       <r>     8.6132     1.4901     6.1671 </r>
       <r>     8.7315     1.6951     6.3676 </r>
       <r>     8.8498     1.6021     6.5572 </r>
       <r>     8.9681     1.1459     6.6928 </r>
       <r>     9.0865     1.0968     6.8226 </r>
       <r>     9.2048     1.6630     7.0194 </r>
       <r>     9.3231     2.2169     7.2817 </r>
       <r>     9.4414     2.1617     7.5375 </r>
       <r>     9.5598     1.6439     7.7320 </r>
       <r>     9.6781     1.2426     7.8790 </r>
       <r>     9.7964     1.4462     8.0501 </r>
       <r>     9.9147     1.8519     8.2693 </r>
       <r>    10.0331     1.6520     8.4647 </r>
       <r>    10.1514     1.1122     8.5963 </r>
       <r>    10.2697     1.1882     8.7369 </r>
       <r>    10.3880     1.7230     8.9408 </r>
       <r>    10.5064     1.7207     9.1444 </r>
       <r>    10.6247     1.5383     9.3265 </r>
       <r>    10.7430     2.0453     9.5685 </r>
       <r>    10.8614     2.6093     9.8772 </r>
       <r>    10.9797     2.1786    10.1350 </r>
       <r>    11.0980     1.5008    10.3126 </r>
       <r>    11.2163     1.1959    10.4541 </r>
       <r>    11.3347     0.6761    10.5341 </r>
       <r>    11.4530     0.1853    10.5560 </r>
       <r>    11.5713     0.0651    10.5637 </r>
       <r>    11.6896     0.0462    10.5692 </r>
       <r>    11.8080     0.0077    10.5701 </r>
       <r>    11.9263     0.0306    10.5737 </r>
       <r>    12.0446     0.1392    10.5902 </r>
       <r>    12.1629     0.3684    10.6338 </r>
       <r>    12.2813     0.5296    10.6964 </r>
       <r>    12.3996     0.4393    10.7484 </r>
       <r>    12.5179     0.3032    10.7843 </r>
       <r>    12.6362     0.1468    10.8016 </r>
       <r>    12.7546     0.0244    10.8045 </r>
       <r>    12.8729     0.1340    10.8204 </r>
       <r>    12.9912     0.3339    10.8599 </r>
       <r>    13.1096     0.2895    10.8942 </r>
       <r>    13.2279     0.2060    10.9185 </r>
       <r>    13.3462     0.2758    10.9512 </r>
       <r>    13.4645     0.2462    10.9803 </r>
       <r>    13.5829     0.1299    10.9957 </r>
       <r>    13.7012     0.1733    11.0162 </r>
       <r>    13.8195     0.2962    11.0512 </r>
       <r>    13.9378     0.3034    11.0871 </r>
       <r>    14.0562     0.2170    11.1128 </r>
       <r>    14.1745     0.2022    11.1367 </r>
       <r>    14.2928     0.2212    11.1629 </r>
       <r>    14.4111     0.2072    11.1874 </r>
       <r>    14.5295     0.2477    11.2167 </r>
       <r>    14.6478     0.3100    11.2534 </r>
       <r>    14.7661     0.2837    11.2870 </r>
       <r>    14.8844     0.3216    11.3250 </r>
       <r>    15.0028     0.4547    11.3788 </r>
       <r>    15.1211     0.2902    11.4132 </r>
       <r>    15.2394     0.0264    11.4163 </r>
       <r>    15.3577    -0.0267    11.4131 </r>
       <r>    15.4761     0.0851    11.4232 </r>
       <r>    15.5944     0.2567    11.4536 </r>
       <r>    15.7127     0.2830    11.4871 </r>
       <r>    15.8311     0.1856    11.5090 </r>
       <r>    15.9494     0.2586    11.5396 </r>
       <r>    16.0677     0.3640    11.5827 </r>
       <r>    16.1860     0.2771    11.6155 </r>
       <r>    16.3044     0.2002    11.6392 </r>
       <r>    16.4227     0.1536    11.6574 </r>
       <r>    16.5410     0.1219    11.6718 </r>
       <r>    16.6593     0.1052    11.6842 </r>
       <r>    16.7777     0.1148    11.6978 </r>
       <r>    16.8960     0.2405    11.7263 </r>
       <r>    17.0143     0.3244    11.7647 </r>
       <r>    17.1326     0.2121    11.7898 </r>
       <r>    17.2510     0.1577    11.8084 </r>
       <r>    17.3693     0.1649    11.8280 </r>
       <r>    17.4876     0.0777    11.8371 </r>
       <r>    17.6059     0.0505    11.8431 </r>
       <r>    17.7243     0.0757    11.8521 </r>
       <r>    17.8426     0.0531    11.8584 </r>
       <r>    17.9609     0.1268    11.8734 </r>
       <r>    18.0793     0.2899    11.9077 </r>
       <r>    18.1976     0.2854    11.9414 </r>
       <r>    18.3159     0.1116    11.9546 </r>
       <r>    18.4342    -0.0089    11.9536 </r>
       <r>    18.5526    -0.0407    11.9488 </r>
       <r>    18.6709     0.0259    11.9518 </r>
       <r>    18.7892     0.3561    11.9940 </r>
       <r>    18.9075     0.7211    12.0793 </r>
       <r>    19.0259     0.6695    12.1585 </r>
       <r>    19.1442     0.3572    12.2008 </r>
       <r>    19.2625     0.1132    12.2142 </r>
       <r>    19.3808     0.0747    12.2230 </r>
       <r>    19.4992     0.2952    12.2579 </r>
       <r>    19.6175     0.6074    12.3298 </r>
       <r>    19.7358     0.5280    12.3923 </r>
       <r>    19.8541     0.2715    12.4244 </r>
       <r>    19.9725     0.2493    12.4539 </r>
       <r>    20.0908     0.2329    12.4815 </r>
       <r>    20.2091     0.2200    12.5075 </r>
       <r>    20.3275     0.2477    12.5368 </r>
       <r>    20.4458     0.2005    12.5605 </r>
       <r>    20.5641     0.1374    12.5768 </r>
       <r>    20.6824     0.2005    12.6005 </r>
       <r>    20.8008     0.2825    12.6339 </r>
       <r>    20.9191     0.3500    12.6754 </r>
       <r>    21.0374     0.4379    12.7272 </r>
       <r>    21.1557     0.4305    12.7781 </r>
       <r>    21.2741     0.2978    12.8133 </r>
       <r>    21.3924     0.1307    12.8288 </r>
       <r>    21.5107     0.1230    12.8434 </r>
       <r>    21.6290     0.2207    12.8695 </r>
       <r>    21.7474     0.2119    12.8945 </r>
       <r>    21.8657     0.2147    12.9199 </r>
       <r>    21.9840     0.2500    12.9495 </r>
       <r>    22.1023     0.2254    12.9762 </r>
       <r>    22.2207     0.2742    13.0086 </r>
       <r>    22.3390     0.3518    13.0503 </r>
       <r>    22.4573     0.4532    13.1039 </r>
       <r>    22.5756     0.6163    13.1768 </r>
       <r>    22.6940     0.7288    13.2631 </r>
       <r>    22.8123     0.6152    13.3358 </r>
       <r>    22.9306     0.4418    13.3881 </r>
       <r>    23.0490     0.5315    13.4510 </r>
       <r>    23.1673     0.5803    13.5197 </r>
       <r>    23.2856     0.3975    13.5667 </r>
       <r>    23.4039     0.3459    13.6076 </r>
       <r>    23.5223     0.4606    13.6621 </r>
       <r>    23.6406     0.4911    13.7202 </r>
       <r>    23.7589     0.3981    13.7673 </r>
       <r>    23.8772     0.2708    13.7994 </r>
       <r>    23.9956     0.2022    13.8233 </r>
       <r>    24.1139     0.2442    13.8522 </r>
       <r>    24.2322     0.4345    13.9036 </r>
       <r>    24.3505     0.6433    13.9797 </r>
       <r>    24.4689     0.7228    14.0653 </r>
       <r>    24.5872     0.6517    14.1424 </r>
       <r>    24.7055     0.6892    14.2239 </r>
       <r>    24.8238     0.6789    14.3043 </r>
       <r>    24.9422     0.5060    14.3641 </r>
       <r>    25.0605     0.3594    14.4067 </r>
       <r>    25.1788     0.2063    14.4311 </r>
       <r>    25.2972     0.3556    14.4732 </r>
       <r>    25.4155     0.8366    14.5721 </r>
       <r>    25.5338     0.9996    14.6904 </r>
       <r>    25.6521     0.6408    14.7662 </r>
       <r>    25.7705     0.3170    14.8038 </r>
       <r>    25.8888     0.2937    14.8385 </r>
       <r>    26.0071     0.4320    14.8896 </r>
       <r>    26.1254     0.4910    14.9477 </r>
       <r>    26.2438     0.3909    14.9940 </r>
       <r>    26.3621     0.2625    15.0250 </r>
       <r>    26.4804     0.2083    15.0497 </r>
       <r>    26.5987     0.4625    15.1044 </r>
       <r>    26.7171     0.7947    15.1985 </r>
       <r>    26.8354     0.7390    15.2859 </r>
       <r>    26.9537     0.5712    15.3535 </r>
       <r>    27.0720     0.6403    15.4293 </r>
       <r>    27.1904     0.7160    15.5140 </r>
       <r>    27.3087     0.7441    15.6020 </r>
       <r>    27.4270     0.6854    15.6831 </r>
       <r>    27.5454     0.5204    15.7447 </r>
       <r>    27.6637     0.4522    15.7982 </r>
       <r>    27.7820     0.4430    15.8506 </r>
       <r>    27.9003     0.7844    15.9434 </r>
       <r>    28.0187     1.1666    16.0815 </r>
       <r>    28.1370     0.9164    16.1899 </r>
       <r>    28.2553     0.5841    16.2590 </r>
       <r>    28.3736     0.4994    16.3181 </r>
       <r>    28.4920     0.2286    16.3452 </r>
       <r>    28.6103     0.0863    16.3554 </r>
       <r>    28.7286     0.5627    16.4220 </r>
       <r>    28.8469     1.0824    16.5500 </r>
       <r>    28.9653     0.8093    16.6458 </r>
       <r>    29.0836     0.3879    16.6917 </r>
       <r>    29.2019     0.4022    16.7393 </r>
       <r>    29.3202     0.4853    16.7967 </r>
       <r>    29.4386     0.6890    16.8782 </r>
       <r>    29.5569     0.7452    16.9664 </r>
       <r>    29.6752     0.4926    17.0247 </r>
       <r>    29.7935     0.4804    17.0815 </r>
       <r>    29.9119     0.6364    17.1568 </r>
       <r>    30.0302     0.5708    17.2244 </r>
       <r>    30.1485     0.4264    17.2748 </r>
       <r>    30.2669     0.3077    17.3112 </r>
       <r>    30.3852     0.1309    17.3267 </r>
       <r>    30.5035     0.0367    17.3311 </r>
       <r>    30.6218     0.1298    17.3464 </r>
       <r>    30.7402     0.2460    17.3755 </r>
       <r>    30.8585     0.2860    17.4094 </r>
       <r>    30.9768     0.3199    17.4472 </r>
       <r>    31.0951     0.3450    17.4880 </r>
       <r>    31.2135     0.2887    17.5222 </r>
       <r>    31.3318     0.1248    17.5370 </r>
       <r>    31.4501    -0.0022    17.5367 </r>
       <r>    31.5684     0.0967    17.5481 </r>
       <r>    31.6868     0.4195    17.5978 </r>
       <r>    31.8051     0.5553    17.6635 </r>
       <r>    31.9234     0.3074    17.6999 </r>
       <r>    32.0417     0.1113    17.7130 </r>
       <r>    32.1601     0.1581    17.7318 </r>
       <r>    32.2784     0.1801    17.7531 </r>
       <r>    32.3967     0.1307    17.7685 </r>
       <r>    32.5151     0.0727    17.7771 </r>
       <r>    32.6334     0.0724    17.7857 </r>
       <r>    32.7517     0.2211    17.8119 </r>
       <r>    32.8700     0.2933    17.8466 </r>
       <r>    32.9884     0.1948    17.8696 </r>
       <r>    33.1067     0.1424    17.8865 </r>
       <r>    33.2250     0.1811    17.9079 </r>
       <r>    33.3433     0.1652    17.9274 </r>
       <r>    33.4617     0.1248    17.9422 </r>
       <r>    33.5800     0.1631    17.9615 </r>
       <r>    33.6983     0.1492    17.9792 </r>
       <r>    33.8166     0.0534    17.9855 </r>
       <r>    33.9350    -0.0025    17.9852 </r>
       <r>    34.0533    -0.0056    17.9845 </r>
       <r>    34.1716    -0.0012    17.9844 </r>
       <r>    34.2899    -0.0004    17.9843 </r>
       <r>    34.4083    -0.0014    17.9842 </r>
       <r>    34.5266    -0.0007    17.9841 </r>
       <r>    34.6449     0.0129    17.9856 </r>
       <r>    34.7633     0.0373    17.9900 </r>
       <r>    34.8816     0.0473    17.9956 </r>
       <r>    34.9999     0.0318    17.9994 </r>
       <r>    35.1182     0.0080    18.0003 </r>
       <r>    35.2366    -0.0016    18.0001 </r>
       <r>    35.3549    -0.0011    18.0000 </r>
       <r>    35.4732    -0.0002    18.0000 </r>
       <r>    35.5915     0.0000    18.0000 </r>
       <r>    35.7099     0.0000    18.0000 </r>
       <r>    35.8282     0.0000    18.0000 </r>
       <r>    35.9465     0.0000    18.0000 </r>
       <r>    36.0648     0.0000    18.0000 </r>
       <r>    36.1832     0.0000    18.0000 </r>
       <r>    36.3015     0.0000    18.0000 </r>
       <r>    36.4198     0.0000    18.0000 </r>
       <r>    36.5381     0.0000    18.0000 </r>
       <r>    36.6565     0.0000    18.0000 </r>
       <r>    36.7748     0.0000    18.0000 </r>
       <r>    36.8931     0.0000    18.0000 </r>
      </set>
     </set>
    </array>
   </total>
  </dos>
 </calculation>
 <structure name="finalpos" >
  <crystal>
   <varray name="basis" >
    <v>       2.69563247       0.00000000       0.00000000 </v>
    <v>       1.34781624       2.33448620       0.00000000 </v>
    <v>       1.34781624       0.77816207       2.20097470 </v>
   </varray>
   <i name="volume">     13.85055065 </i>
   <varray name="rec_basis" >
    <v>       0.37097045      -0.21417989      -0.15144805 </v>
    <v>       0.00000000       0.42835978      -0.15144805 </v>
    <v>       0.00000000       0.00000000       0.45434416 </v>
   </varray>
  </crystal>
  <varray name="positions" >
   <v>       0.00000000       0.00000000       0.00000000 </v>
  </varray>
 </structure>
</modeling>
