unknown system                          
           1
     2.695632    0.000000    0.000000
     1.347816    2.334486    0.000000
     1.347816    0.778162    2.200975
   Pd
   1
Direct configuration=     1
   0.00000000  0.00000000  0.00000000
