unknown system                          
   1.00000000000000     
     2.949908    0.000000    0.000000
     1.474954    2.554695    0.000000
     1.474954    0.851565    2.408590
   Ag
     1
Direct
  0.000000  0.000000  0.000000
 
   28   28   28
  141.20      136.27      122.86      104.27      83.973      64.292      46.477      31.375      19.778      12.085    
  7.8027      5.5717      4.2672      3.6144      3.4216      3.6144      4.2672      5.5717      7.8027      12.085    
  19.778      31.375      46.477      64.292      83.973      104.27      122.86      136.27      136.27      127.11    
  111.22      92.008      72.334      53.890      37.668      24.521      15.113      9.4166      6.4496      4.7735    
  3.8408      3.4434      3.4446      3.8420      4.7723      6.4484      9.4179      15.114      24.520      37.667    
  53.891      72.335      92.007      111.21      127.11      136.27      122.85      111.21      94.893      76.756    
  58.863      42.486      28.602      18.047      11.153      7.3546      5.3151      4.1113      3.5094      3.3308    
  3.5094      4.1113      5.3151      7.3545      11.153      18.047      28.602      42.486      58.863      76.756    
  94.893      111.21      122.85      127.11      104.28      92.007      76.755      60.617      45.102      31.357    
  20.369      12.727      8.2332      5.8349      4.3941      3.6039      3.2680      3.2673      3.6032      4.3948    
  5.8355      8.2323      12.726      20.370      31.358      45.101      60.617      76.756      92.007      104.27    
  111.21      111.22      83.974      72.335      58.862      45.101      32.331      21.651      13.827      8.9469    
  6.2674      4.6566      3.7077      3.2382      3.0996      3.2382      3.7077      4.6567      6.2674      8.9469    
  13.827      21.651      32.331      45.101      58.862      72.335      83.974      92.007      94.893      92.007    
  64.292      53.891      42.486      31.358      21.652      14.223      9.3504      6.5558      4.8588      3.8023    
  3.2289      2.9853      2.9854      3.2290      3.8022      4.8587      6.5560      9.3505      14.223      21.651    
  31.358      42.487      53.891      64.292      72.335      76.755      76.755      72.335      46.476      37.668    
  28.602      20.369      13.828      9.3504      6.6584      4.9690      3.8678      3.2286      2.9108      2.8162    
  2.9108      3.2286      3.8678      4.9690      6.6584      9.3504      13.828      20.369      28.602      37.668    
  46.476      53.891      58.863      60.617      58.863      53.891      31.375      24.521      18.046      12.726    
  8.9470      6.5558      4.9688      3.8915      3.2305      2.8676      2.7104      2.7107      2.8678      3.2302    
  3.8912      4.9690      6.5561      8.9468      12.726      18.046      24.521      31.375      37.668      42.487    
  45.101      45.101      42.486      37.668      19.779      15.113      11.153      8.2328      6.2673      4.8587    
  3.8677      3.2304      2.8536      2.6592      2.5995      2.6592      2.8536      3.2304      3.8677      4.8587    
  6.2673      8.2328      11.153      15.113      19.779      24.521      28.602      31.358      32.331      31.358    
  28.602      24.521      12.085      9.4173      7.3552      5.8351      4.6567      3.8023      3.2286      2.8676    
  2.6593      2.5642      2.5640      2.6591      2.8678      3.2289      3.8022      4.6565      5.8353      7.3554    
  9.4172      12.085      15.113      18.046      20.369      21.651      21.652      20.369      18.046      15.113    
  7.8018      6.4490      5.3151      4.3944      3.7080      3.2290      2.9108      2.7105      2.5997      2.5641    
  2.5997      2.7105      2.9108      3.2290      3.7080      4.3944      5.3152      6.4491      7.8019      9.4172    
  11.153      12.726      13.828      14.223      13.828      12.726      11.153      9.4172      5.5717      4.7729    
  4.1106      3.6035      3.2381      2.9854      2.8162      2.7105      2.6591      2.6592      2.7106      2.8161    
  2.9853      3.2382      3.6035      4.1106      4.7729      5.5717      6.4490      7.3553      8.2328      8.9470    
  9.3505      9.3504      8.9469      8.2327      7.3552      6.4490      4.2681      3.8414      3.5094      3.2676    
  3.0994      2.9854      2.9108      2.8677      2.8535      2.8677      2.9108      2.9854      3.0993      3.2676    
  3.5094      3.8414      4.2681      4.7729      5.3152      5.8352      6.2672      6.5560      6.6584      6.5560    
  6.2671      5.8352      5.3151      4.7729      3.6144      3.4440      3.3315      3.2676      3.2382      3.2289    
  3.2287      3.2303      3.2304      3.2288      3.2289      3.2381      3.2676      3.3315      3.4440      3.6143    
  3.8414      4.1106      4.3945      4.6566      4.8587      4.9689      4.9690      4.8588      4.6567      4.3945    
  4.1106      3.8414      3.4207      3.4440      3.5094      3.6035      3.7080      3.8023      3.8678      3.8913    
  3.8678      3.8023      3.7080      3.6035      3.5094      3.4440      3.4206      3.4440      3.5094      3.6035    
  3.7080      3.8023      3.8678      3.8913      3.8678      3.8023      3.7080      3.6035      3.5094      3.4440    
  3.6144      3.8414      4.1106      4.3945      4.6567      4.8588      4.9690      4.9689      4.8587      4.6566    
  4.3945      4.1106      3.8414      3.6143      3.4440      3.3315      3.2676      3.2381      3.2289      3.2288    
  3.2304      3.2303      3.2287      3.2289      3.2382      3.2676      3.3315      3.4440      4.2681      4.7729    
  5.3151      5.8352      6.2671      6.5560      6.6584      6.5560      6.2672      5.8352      5.3152      4.7729    
  4.2681      3.8414      3.5094      3.2676      3.0993      2.9854      2.9108      2.8677      2.8535      2.8677    
  2.9108      2.9854      3.0994      3.2676      3.5094      3.8414      5.5717      6.4490      7.3552      8.2327    
  8.9469      9.3504      9.3505      8.9470      8.2328      7.3553      6.4490      5.5717      4.7729      4.1106    
  3.6035      3.2382      2.9853      2.8161      2.7106      2.6592      2.6591      2.7105      2.8162      2.9854    
  3.2381      3.6035      4.1106      4.7729      7.8018      9.4172      11.153      12.726      13.828      14.223    
  13.828      12.726      11.153      9.4172      7.8019      6.4491      5.3152      4.3944      3.7080      3.2290    
  2.9108      2.7105      2.5997      2.5641      2.5997      2.7105      2.9108      3.2290      3.7080      4.3944    
  5.3151      6.4490      12.085      15.113      18.046      20.369      21.652      21.651      20.369      18.046    
  15.113      12.085      9.4172      7.3554      5.8353      4.6565      3.8022      3.2289      2.8678      2.6591    
  2.5640      2.5642      2.6593      2.8676      3.2286      3.8023      4.6567      5.8351      7.3552      9.4173    
  19.779      24.521      28.602      31.358      32.331      31.358      28.602      24.521      19.779      15.113    
  11.153      8.2328      6.2673      4.8587      3.8677      3.2304      2.8536      2.6592      2.5995      2.6592    
  2.8536      3.2304      3.8677      4.8587      6.2673      8.2328      11.153      15.113      31.375      37.668    
  42.486      45.101      45.101      42.487      37.668      31.375      24.521      18.046      12.726      8.9468    
  6.5561      4.9690      3.8912      3.2302      2.8678      2.7107      2.7104      2.8676      3.2305      3.8915    
  4.9688      6.5558      8.9470      12.726      18.046      24.521      46.476      53.891      58.863      60.617    
  58.863      53.891      46.476      37.668      28.602      20.369      13.828      9.3504      6.6584      4.9690    
  3.8678      3.2286      2.9108      2.8162      2.9108      3.2286      3.8678      4.9690      6.6584      9.3504    
  13.828      20.369      28.602      37.668      64.292      72.335      76.755      76.755      72.335      64.292    
  53.891      42.487      31.358      21.651      14.223      9.3505      6.5560      4.8587      3.8022      3.2290    
  2.9854      2.9853      3.2289      3.8023      4.8588      6.5558      9.3504      14.223      21.652      31.358    
  42.486      53.891      83.974      92.007      94.893      92.007      83.974      72.335      58.862      45.101    
  32.331      21.651      13.827      8.9469      6.2674      4.6567      3.7077      3.2382      3.0996      3.2382    
  3.7077      4.6566      6.2674      8.9469      13.827      21.651      32.331      45.101      58.862      72.335    
  104.28      111.22      111.21      104.27      92.007      76.756      60.617      45.101      31.358      20.370    
  12.726      8.2323      5.8355      4.3948      3.6032      3.2673      3.2680      3.6039      4.3941      5.8349    
  8.2332      12.727      20.369      31.357      45.102      60.617      76.755      92.007      122.85      127.11    
  122.85      111.21      94.893      76.756      58.863      42.486      28.602      18.047      11.153      7.3545    
  5.3151      4.1113      3.5094      3.3308      3.5094      4.1113      5.3151      7.3546      11.153      18.047    
  28.602      42.486      58.863      76.756      94.893      111.21      136.27      136.27      127.11      111.21    
  92.007      72.335      53.891      37.667      24.520      15.114      9.4179      6.4484      4.7723      3.8420    
  3.4446      3.4434      3.8408      4.7735      6.4496      9.4166      15.113      24.521      37.668      53.890    
  72.334      92.008      111.22      127.11      136.27      127.11      111.22      92.008      72.334      53.890    
  37.668      24.521      15.113      9.4166      6.4496      4.7735      3.8408      3.4434      3.4446      3.8420    
  4.7723      6.4484      9.4179      15.114      24.520      37.667      53.891      72.335      92.007      111.21    
  127.11      136.27      127.11      114.90      97.858      79.033      60.573      43.744      29.478      18.597    
  11.450      7.4999      5.4018      4.1663      3.5476      3.3639      3.5476      4.1663      5.4018      7.4999    
  11.450      18.597      29.478      43.744      60.573      79.033      97.858      114.90      127.11      131.58    
  111.22      97.858      81.416      64.211      47.803      33.296      21.642      13.457      8.5989      6.0348    
  4.5205      3.6868      3.3319      3.3311      3.6860      4.5213      6.0356      8.5980      13.456      21.643    
  33.297      47.802      64.210      81.417      97.859      111.21      118.82      118.82      92.008      79.032    
  64.210      49.229      35.372      23.719      15.070      9.5952      6.6022      4.8679      3.8413      3.3327    
  3.1827      3.3327      3.8414      4.8679      6.6021      9.5951      15.070      23.719      35.372      49.229    
  64.210      79.032      92.008      101.06      104.33      101.06      72.335      60.574      47.802      35.372    
  24.455      15.970      10.298      7.0415      5.1607      3.9901      3.3533      3.0833      3.0835      3.3536    
  3.9899      5.1604      7.0418      10.298      15.969      24.455      35.372      47.803      60.573      72.335    
  81.537      86.641      86.641      81.537      53.891      43.745      33.297      23.718      15.969      10.552    
  7.2860      5.3563      4.1066      3.3797      3.0195      2.9126      3.0195      3.3797      4.1066      5.3563    
  7.2861      10.552      15.969      23.718      33.297      43.745      53.891      62.479      68.282      70.340    
  68.282      62.479      37.668      29.478      21.642      15.070      10.298      7.2860      5.4251      4.1709    
  3.4004      2.9804      2.8001      2.8002      2.9805      3.4002      4.1707      5.4252      7.2861      10.298    
  15.070      21.642      29.478      37.668      45.148      50.878      53.994      53.994      50.878      45.148    
  24.521      18.596      13.456      9.5952      7.0418      5.3563      4.1707      3.4081      2.9619      2.7350    
  2.6662      2.7350      2.9618      3.4080      4.1707      5.3563      7.0418      9.5952      13.456      18.596    
  24.521      30.446      35.497      38.895      40.093      38.895      35.498      30.446      15.113      11.450    
  8.5984      6.6017      5.1606      4.1067      3.4002      2.9616      2.7136      2.6026      2.6023      2.7134    
  2.9618      3.4005      4.1065      5.1604      6.6018      8.5986      11.450      15.113      19.191      23.073    
  26.112      27.779      27.779      26.112      23.073      19.191      9.4172      7.5008      6.0352      4.8678    
  3.9900      3.3798      2.9804      2.7349      2.6025      2.5607      2.6025      2.7349      2.9805      3.3799    
  3.9900      4.8677      6.0352      7.5008      9.4173      11.763      14.264      16.501      18.050      18.604    
  18.050      16.501      14.264      11.763      6.4489      5.4018      4.5209      3.8417      3.3534      3.0195    
  2.8002      2.6663      2.6024      2.6025      2.6664      2.8001      3.0194      3.3535      3.8418      4.5209    
  5.4018      6.4491      7.6451      8.9873      10.325      11.418      12.034      12.034      11.418      10.325    
  8.9873      7.6450      4.7729      4.1656      3.6863      3.3327      3.0834      2.9127      2.8002      2.7350    
  2.7135      2.7350      2.8002      2.9126      3.0834      3.3327      3.6864      4.1656      4.7729      5.4806    
  6.2277      6.9475      7.5789      8.0209      8.1806      8.0209      7.5789      6.9475      6.2277      5.4805    
  3.8414      3.5476      3.3315      3.1823      3.0834      3.0195      2.9805      2.9617      2.9617      2.9805    
  3.0195      3.0834      3.1823      3.3315      3.5476      3.8414      4.2102      4.6323      5.0672      5.4618    
  5.7620      5.9243      5.9243      5.7620      5.4618      5.0671      4.6323      4.2102      3.4440      3.3647    
  3.3315      3.3327      3.3534      3.3797      3.4003      3.4080      3.4004      3.3798      3.3535      3.3327    
  3.3315      3.3646      3.4440      3.5742      3.7496      3.9533      4.1593      4.3373      4.4583      4.5012    
  4.4584      4.3374      4.1593      3.9533      3.7496      3.5743      3.4440      3.5476      3.6864      3.8418    
  3.9900      4.1066      4.1708      4.1708      4.1066      3.9900      3.8418      3.6864      3.5476      3.4440    
  3.3859      3.3738      3.3994      3.4485      3.5050      3.5531      3.5806      3.5806      3.5531      3.5050    
  3.4486      3.3994      3.3738      3.3859      3.8414      4.1656      4.5209      4.8679      5.1606      5.3563    
  5.4252      5.3563      5.1605      4.8679      4.5209      4.1656      3.8414      3.5743      3.3738      3.2357    
  3.1471      3.0931      3.0617      3.0453      3.0401      3.0452      3.0617      3.0931      3.1471      3.2357    
  3.3738      3.5743      4.7729      5.4018      6.0351      6.6017      7.0416      7.2861      7.2861      7.0416    
  6.6017      6.0352      5.4018      4.7729      4.2102      3.7496      3.3994      3.1471      2.9713      2.8521    
  2.7767      2.7395      2.7395      2.7766      2.8521      2.9713      3.1471      3.3994      3.7496      4.2102    
  6.4490      7.5007      8.5985      9.5951      10.298      10.552      10.298      9.5952      8.5985      7.5007    
  6.4490      5.4806      4.6323      3.9532      3.4485      3.0932      2.8521      2.6960      2.6073      2.5783    
  2.6073      2.6960      2.8521      3.0932      3.4485      3.9532      4.6323      5.4805      9.4173      11.450    
  13.457      15.070      15.969      15.969      15.070      13.457      11.450      9.4172      7.6450      6.2278    
  5.0672      4.1592      3.5049      3.0618      2.7767      2.6072      2.5280      2.5281      2.6073      2.7766    
  3.0617      3.5050      4.1594      5.0671      6.2276      7.6451      15.113      18.596      21.642      23.719    
  24.455      23.719      21.642      18.596      15.113      11.763      8.9872      6.9476      5.4619      4.3373    
  3.5529      3.0453      2.7396      2.5782      2.5279      2.5782      2.7396      3.0453      3.5529      4.3373    
  5.4619      6.9475      8.9872      11.763      24.521      29.478      33.297      35.372      35.372      33.297    
  29.478      24.521      19.191      14.264      10.325      7.5788      5.7621      4.4584      3.5805      3.0400    
  2.7396      2.6074      2.6071      2.7394      3.0402      3.5807      4.4582      5.7619      7.5790      10.325    
  14.264      19.191      37.668      43.745      47.802      49.229      47.802      43.745      37.668      30.446    
  23.073      16.501      11.418      8.0208      5.9243      4.5013      3.5806      3.0451      2.7766      2.6962    
  2.7766      3.0451      3.5806      4.5014      5.9242      8.0207      11.418      16.501      23.073      30.446    
  53.890      60.573      64.210      64.210      60.573      53.891      45.148      35.498      26.112      18.050    
  12.034      8.1806      5.9242      4.4584      3.5531      3.0617      2.8521      2.8521      3.0617      3.5530    
  4.4583      5.9242      8.1806      12.034      18.050      26.112      35.498      45.148      72.335      79.032    
  81.416      79.032      72.335      62.479      50.878      38.895      27.779      18.604      12.034      8.0209    
  5.7622      4.3374      3.5048      3.0931      2.9714      3.0931      3.5048      4.3373      5.7621      8.0209    
  12.034      18.604      27.779      38.895      50.878      62.479      92.007      97.859      97.858      92.007    
  81.537      68.282      53.994      40.092      27.779      18.051      11.418      7.5787      5.4620      4.1596    
  3.4483      3.1469      3.1473      3.4487      4.1591      5.4616      7.5791      11.418      18.050      27.778    
  40.093      53.994      68.282      81.537      111.21      114.90      111.21      101.06      86.641      70.340    
  53.994      38.894      26.112      16.502      10.325      6.9469      5.0671      3.9538      3.3994      3.2352    
  3.3994      3.9538      5.0672      6.9470      10.325      16.502      26.112      38.894      53.994      70.340    
  86.641      101.06      127.11      127.11      118.82      104.33      86.641      68.283      50.878      35.497    
  23.073      14.264      8.9878      6.2272      4.6318      3.7501      3.3743      3.3733      3.7491      4.6328    
  6.2282      8.9868      14.263      23.074      35.498      50.877      68.282      86.642      104.34      118.82    
  136.27      131.58      118.82      101.06      81.536      62.479      45.149      30.446      19.190      11.763    
  7.6458      5.4805      4.2094      3.5743      3.3868      3.5743      4.2094      5.4805      7.6458      11.763    
  19.190      30.446      45.149      62.479      81.536      101.06      118.82      131.58      122.85      111.21    
  94.893      76.756      58.863      42.486      28.602      18.047      11.153      7.3546      5.3151      4.1113    
  3.5094      3.3308      3.5094      4.1113      5.3151      7.3545      11.153      18.047      28.602      42.486    
  58.863      76.756      94.893      111.21      122.85      127.11      111.22      97.858      81.416      64.211    
  47.803      33.296      21.642      13.457      8.5989      6.0348      4.5205      3.6868      3.3319      3.3311    
  3.6860      4.5213      6.0356      8.5980      13.456      21.643      33.297      47.802      64.210      81.417    
  97.859      111.21      118.82      118.82      94.894      81.417      66.097      50.677      36.440      24.449    
  15.514      9.8285      6.7202      4.9418      3.8881      3.3656      3.2115      3.3656      3.8881      4.9418    
  6.7201      9.8285      15.514      24.449      36.440      50.677      66.097      81.417      94.893      104.33    
  107.75      104.33      76.756      64.211      50.677      37.544      25.986      16.937      10.830      7.3094    
  5.3229      4.0912      3.4199      3.1353      3.1356      3.4203      4.0909      5.3226      7.3097      10.830    
  16.937      25.985      37.545      50.677      64.210      76.755      86.641      92.153      92.153      86.641    
  58.863      47.802      36.440      25.985      17.445      11.393      7.7187      5.6122      4.2651      3.4796    
  3.0906      2.9754      3.0906      3.4796      4.2651      5.6122      7.7187      11.393      17.445      25.985    
  36.440      47.803      58.863      68.282      74.687      76.968      74.687      68.282      42.486      33.297    
  24.449      16.937      11.393      7.8658      5.7684      4.3830      3.5291      3.0651      2.8667      2.8668    
  3.0652      3.5291      4.3829      5.7685      7.8660      11.393      16.937      24.449      33.297      42.487    
  50.878      57.326      60.844      60.844      57.325      50.878      28.602      21.642      15.514      10.830    
  7.7188      5.7684      4.4245      3.5572      3.0522      2.7977      2.7211      2.7977      3.0522      3.5572    
  4.4245      5.7684      7.7188      10.830      15.514      21.642      28.602      35.498      41.354      45.290    
  46.678      45.290      41.354      35.498      18.047      13.457      9.8284      7.3094      5.6124      4.3831    
  3.5571      3.0479      2.7638      2.6382      2.6380      2.7635      3.0481      3.5573      4.3828      5.6121    
  7.3096      9.8286      13.457      18.046      23.073      27.803      31.478      33.488      33.488      31.479    
  27.802      23.073      11.153      8.5986      6.7197      5.3226      4.2651      3.5292      3.0520      2.7635    
  2.6108      2.5633      2.6108      2.7635      3.0520      3.5292      4.2651      5.3226      6.7197      8.5986    
  11.153      14.264      17.534      20.424      22.408      23.115      22.408      20.424      17.534      14.264    
  7.3552      6.0353      4.9418      4.0910      3.4794      3.0652      2.7978      2.6380      2.5631      2.5632    
  2.6382      2.7977      3.0651      3.4796      4.0911      4.9417      6.0351      7.3553      8.9873      10.866    
  12.736      14.251      15.099      15.099      14.251      12.736      10.866      8.9872      5.3151      4.5209    
  3.8885      3.4201      3.0905      2.8668      2.7213      2.6381      2.6108      2.6381      2.7213      2.8668    
  3.0905      3.4201      3.8886      4.5209      5.3151      6.2277      7.2067      8.2204      9.1419      9.7939    
  10.030      9.7939      9.1419      8.2204      7.2067      6.2276      4.1106      3.6863      3.3656      3.1355    
  2.9755      2.8668      2.7977      2.7636      2.7636      2.7977      2.8668      2.9754      3.1354      3.3656    
  3.6864      4.1106      4.6323      5.2194      5.8149      6.3482      6.7583      6.9852      6.9852      6.7583    
  6.3482      5.8149      5.2194      4.6323      3.5094      3.3315      3.2110      3.1354      3.0906      3.0651    
  3.0520      3.0480      3.0520      3.0651      3.0906      3.1354      3.2110      3.3315      3.5094      3.7496    
  4.0445      4.3706      4.6914      4.9638      5.1467      5.2112      5.1467      4.9638      4.6914      4.3705    
  4.0444      3.7496      3.3315      3.3315      3.3656      3.4201      3.4795      3.5291      3.5572      3.5572    
  3.5291      3.4795      3.4201      3.3656      3.3315      3.3315      3.3738      3.4589      3.5779      3.7144    
  3.8466      3.9516      4.0098      4.0098      3.9516      3.8466      3.7144      3.5779      3.4589      3.3738    
  3.5094      3.6864      3.8885      4.0911      4.2651      4.3829      4.4247      4.3829      4.2651      4.0911    
  3.8885      3.6864      3.5094      3.3738      3.2857      3.2414      3.2306      3.2401      3.2575      3.2725    
  3.2783      3.2725      3.2575      3.2401      3.2306      3.2414      3.2857      3.3738      4.1106      4.5209    
  4.9418      5.3228      5.6122      5.7685      5.7684      5.6122      5.3228      4.9418      4.5209      4.1106    
  3.7497      3.4589      3.2414      3.0876      2.9827      2.9132      2.8699      2.8489      2.8488      2.8698    
  2.9131      2.9828      3.0877      3.2414      3.4589      3.7496      5.3151      6.0351      6.7197      7.3095    
  7.7187      7.8659      7.7187      7.3095      6.7197      6.0352      5.3152      4.6324      4.0445      3.5779    
  3.2305      2.9828      2.8108      2.6964      2.6298      2.6077      2.6298      2.6964      2.8108      2.9827    
  3.2306      3.5779      4.0444      4.6323      7.3553      8.5984      9.8285      10.830      11.393      11.393    
  10.830      9.8286      8.5985      7.3552      6.2277      5.2195      4.3706      3.7144      3.2401      2.9132    
  2.6965      2.5632      2.4991      2.4992      2.5633      2.6964      2.9131      3.2401      3.7144      4.3705    
  5.2194      6.2277      11.153      13.457      15.514      16.937      17.445      16.937      15.514      13.457    
  11.153      8.9873      7.2066      5.8149      4.6915      3.8466      3.2574      2.8699      2.6299      2.4992    
  2.4576      2.4992      2.6299      2.8699      3.2574      3.8466      4.6915      5.8149      7.2065      8.9873    
  18.046      21.642      24.449      25.985      25.986      24.449      21.642      18.046      14.264      10.866    
  8.2203      6.3481      4.9639      3.9517      3.2724      2.8488      2.6078      2.4993      2.4991      2.6075    
  2.8489      3.2726      3.9515      4.9637      6.3483      8.2206      10.866      14.264      28.602      33.297    
  36.440      37.545      36.440      33.297      28.602      23.073      17.534      12.736      9.1419      6.7581    
  5.1467      4.0099      3.2783      2.8487      2.6298      2.5634      2.6298      2.8487      3.2783      4.0099    
  5.1467      6.7581      9.1419      12.736      17.534      23.073      42.486      47.802      50.677      50.677    
  47.802      42.487      35.498      27.802      20.423      14.251      9.7940      6.9851      5.2111      4.0099    
  3.2726      2.8698      2.6963      2.6965      2.8700      3.2724      4.0097      5.2112      6.9852      9.7938    
  14.251      20.424      27.803      35.498      58.863      64.210      66.097      64.210      58.863      50.878    
  41.354      31.478      22.408      15.099      10.030      6.9852      5.1467      3.9516      3.2576      2.9131    
  2.8108      2.9131      3.2576      3.9516      5.1467      6.9852      10.030      15.099      22.408      31.478    
  41.354      50.878      76.755      81.417      81.416      76.755      68.282      57.326      45.290      33.488    
  23.115      15.099      9.7938      6.7582      4.9639      3.8467      3.2401      2.9827      2.9828      3.2402    
  3.8465      4.9637      6.7584      9.7940      15.099      23.115      33.488      45.290      57.325      68.282    
  94.893      97.859      94.893      86.641      74.687      60.845      46.678      33.488      22.408      14.251    
  9.1419      6.3479      4.6914      3.7147      3.2306      3.0873      3.2306      3.7147      4.6914      6.3479    
  9.1419      14.251      22.408      33.488      46.678      60.845      74.687      86.641      111.21      111.22    
  104.33      92.153      76.967      60.845      45.290      31.478      20.423      12.736      8.2208      5.8145    
  4.3702      3.5783      3.2418      3.2411      3.5776      4.3709      5.8152      8.2201      12.735      20.424    
  31.479      45.290      60.844      76.968      92.154      104.33      122.85      118.82      107.75      92.153    
  74.687      57.325      41.355      27.802      17.533      10.866      7.2073      5.2194      4.0438      3.4589    
  3.2864      3.4589      4.0438      5.2194      7.2073      10.866      17.533      27.802      41.355      57.325    
  74.687      92.153      107.75      118.82      127.11      118.82      104.34      86.642      68.282      50.877    
  35.498      23.074      14.263      8.9868      6.2282      4.6328      3.7491      3.3733      3.3743      3.7501    
  4.6318      6.2272      8.9878      14.264      23.073      35.497      50.878      68.283      86.641      104.33    
  118.82      127.11      104.28      92.007      76.755      60.617      45.102      31.357      20.369      12.727    
  8.2332      5.8349      4.3941      3.6039      3.2680      3.2673      3.6032      4.3948      5.8355      8.2323    
  12.726      20.370      31.358      45.101      60.617      76.756      92.007      104.27      111.21      111.22    
  92.008      79.032      64.210      49.229      35.372      23.719      15.070      9.5952      6.6022      4.8679    
  3.8413      3.3327      3.1827      3.3327      3.8414      4.8679      6.6021      9.5951      15.070      23.719    
  35.372      49.229      64.210      79.032      92.008      101.06      104.33      101.06      76.756      64.211    
  50.677      37.544      25.986      16.937      10.830      7.3094      5.3229      4.0912      3.4199      3.1353    
  3.1356      3.4203      4.0909      5.3226      7.3097      10.830      16.937      25.985      37.545      50.677    
  64.210      76.755      86.641      92.153      92.153      86.641      60.617      49.229      37.545      26.786    
  17.971      11.696      7.8739      5.7015      4.3206      3.5145      3.1154      2.9972      3.1154      3.5145    