unknown system                          
   1.00000000000000     
     2.949908    0.000000    0.000000
     1.474954    2.554695    0.000000
     1.474954    0.851565    2.408590
   Ag
     1
Direct
  0.000000  0.000000  0.000000
 
   28   28   28
 0.14119892450E+03 0.13626696657E+03 0.12285587477E+03 0.10427474967E+03 0.83973107099E+02
 0.64292119627E+02 0.46477202209E+02 0.31374775199E+02 0.19778433378E+02 0.12085003828E+02
 0.78027342071E+01 0.55716908214E+01 0.42672082393E+01 0.36143735947E+01 0.34215552336E+01
 0.36143735947E+01 0.42672082393E+01 0.55716908214E+01 0.78027342071E+01 0.12085003828E+02
 0.19778433378E+02 0.31374775199E+02 0.46477202209E+02 0.64292119627E+02 0.83973107099E+02
 0.10427474967E+03 0.12285587477E+03 0.13626696657E+03 0.13626637388E+03 0.12710973974E+03
 0.11121566588E+03 0.92007842218E+02 0.72334130797E+02 0.53890023096E+02 0.37668239236E+02
 0.24521383845E+02 0.15112676058E+02 0.94166491186E+01 0.64495627807E+01 0.47734912165E+01
 0.38407957400E+01 0.34434458105E+01 0.34446377448E+01 0.38419949097E+01 0.47723154193E+01
 0.64483866461E+01 0.94178614222E+01 0.15113910754E+02 0.24520231992E+02 0.37667021906E+02
 0.53891104633E+02 0.72335184645E+02 0.92006540204E+02 0.11121438180E+03 0.12711084837E+03
 0.13626752845E+03 0.12285498685E+03 0.11121437328E+03 0.94893148463E+02 0.76756041544E+02
 0.58862577696E+02 0.42485733902E+02 0.28601867365E+02 0.18047107414E+02 0.11152805668E+02
 0.73545549854E+01 0.53151213569E+01 0.41112830702E+01 0.35093670190E+01 0.33308106729E+01
 0.35093888721E+01 0.41113058298E+01 0.53151211288E+01 0.73545269827E+01 0.11152768446E+02
 0.18047088499E+02 0.28601875909E+02 0.42485748009E+02 0.58862552793E+02 0.76755943544E+02
 0.94892984599E+02 0.11121419599E+03 0.12285487130E+03 0.12711095559E+03 0.10427510513E+03
 0.92006894066E+02 0.76754986178E+02 0.60617382388E+02 0.45101620798E+02 0.31357461174E+02
 0.20368853562E+02 0.12726714895E+02 0.82331506604E+01 0.58348722412E+01 0.43941192861E+01
 0.36038500715E+01 0.32679556551E+01 0.32672724898E+01 0.36031890033E+01 0.43948375011E+01
 0.58355196046E+01 0.82323447997E+01 0.12725941786E+02 0.20369565349E+02 0.31358221613E+02
 0.45100980578E+02 0.60616725938E+02 0.76755678821E+02 0.92007482515E+02 0.10427422785E+03
 0.11121454045E+03 0.11121532995E+03 0.83974281752E+02 0.72334723492E+02 0.58862290968E+02
 0.45101265340E+02 0.32331155741E+02 0.21651462292E+02 0.13827291689E+02 0.89468938211E+01
 0.62674479579E+01 0.46566428912E+01 0.37076677980E+01 0.32381523578E+01 0.30996435885E+01
 0.32381681515E+01 0.37076870834E+01 0.46566510451E+01 0.62674393755E+01 0.89468774739E+01
 0.13827285095E+02 0.21651479112E+02 0.32331196390E+02 0.45101314107E+02 0.58862329620E+02
 0.72334741108E+02 0.83974280438E+02 0.92007127058E+02 0.94892697871E+02 0.92007132898E+02
 0.64292184709E+02 0.53890680873E+02 0.42486368728E+02 0.31357751548E+02 0.21651527375E+02
 0.14223387200E+02 0.93504073972E+01 0.65558271604E+01 0.48587581565E+01 0.38023122319E+01
 0.32288795820E+01 0.29853292352E+01 0.29854224813E+01 0.32289631788E+01 0.38022220363E+01
 0.48587401521E+01 0.65560287430E+01 0.93505151407E+01 0.14223213613E+02 0.21651412917E+02
 0.31357927527E+02 0.42486502822E+02 0.53890542641E+02 0.64292129959E+02 0.72334806190E+02
 0.76755388447E+02 0.76755178552E+02 0.72334526867E+02 0.46476314285E+02 0.37667595133E+02
 0.28601867365E+02 0.20369260428E+02 0.13827578417E+02 0.93504210711E+01 0.66584257482E+01
 0.49689901266E+01 0.38678174602E+01 0.32286207245E+01 0.29107846913E+01 0.28162139574E+01
 0.29107769067E+01 0.32286153112E+01 0.38678243504E+01 0.49690086087E+01 0.66584420890E+01
 0.93504185559E+01 0.13827554364E+02 0.20369229154E+02 0.28601860720E+02 0.37667634501E+02
 0.46476397308E+02 0.53890659133E+02 0.58862616347E+02 0.60617029986E+02 0.58862552793E+02
 0.53890563347E+02 0.31374867113E+02 0.24520699237E+02 0.18046315591E+02 0.12726451351E+02
 0.89469857348E+01 0.65558003293E+01 0.49688468041E+01 0.38915039477E+01 0.32304654827E+01
 0.28675543389E+01 0.27104356118E+01 0.27106606141E+01 0.28677778218E+01 0.32302119226E+01
 0.38911954338E+01 0.49689996164E+01 0.65560612464E+01 0.89468419355E+01 0.12726184532E+02
 0.18046388039E+02 0.24520881757E+02 0.31374781527E+02 0.37667593996E+02 0.42486529653E+02
 0.45101406021E+02 0.45101244122E+02 0.42486356004E+02 0.37667706515E+02 0.19779468778E+02
 0.15113268753E+02 0.11152658193E+02 0.82327952031E+01 0.62673087051E+01 0.48586930739E+01
 0.38676699851E+01 0.32303735689E+01 0.28536282731E+01 0.26591798014E+01 0.25995295138E+01
 0.26591600543E+01 0.28536023645E+01 0.32303580575E+01 0.38676731185E+01 0.48587060365E+01
 0.62673158509E+01 0.82327771985E+01 0.11152615625E+02 0.15113211777E+02 0.19779415381E+02
 0.24520789843E+02 0.28601713245E+02 0.31357862444E+02 0.32331057137E+02 0.31357866156E+02
 0.28601728434E+02 0.24520824686E+02 0.12085089538E+02 0.94173275225E+01 0.73551691847E+01
 0.58351419891E+01 0.46567286007E+01 0.38023328587E+01 0.32285864238E+01 0.28675605433E+01
 0.26592655109E+01 0.25641828152E+01 0.25639801930E+01 0.26590627404E+01 0.28677837247E+01
 0.32288534513E+01 0.38021925875E+01 0.46565049893E+01 0.58352778650E+01 0.73553789030E+01
 0.94172033784E+01 0.12084886341E+02 0.15113297486E+02 0.18046381835E+02 0.20369092036E+02
 0.21651392290E+02 0.21651564821E+02 0.20369295601E+02 0.18046302880E+02 0.15113232350E+02
 0.78018462821E+01 0.64490450154E+01 0.53151213569E+01 0.43943998142E+01 0.37079545259E+01
 0.32290195938E+01 0.29107846913E+01 0.27104525963E+01 0.25996769888E+01 0.25641408317E+01
 0.25996872440E+01 0.27104652288E+01 0.29107925403E+01 0.32290204223E+01 0.37079588097E+01
 0.43944167512E+01 0.53151572049E+01 0.64490950684E+01 0.78018879898E+01 0.94172141586E+01
 0.11152763100E+02 0.12726351375E+02 0.13827554364E+02 0.14223203767E+02 0.13827571823E+02
 0.12726372173E+02 0.11152768446E+02 0.94171937983E+01 0.55716690406E+01 0.47729203028E+01
 0.41106049423E+01 0.36034728334E+01 0.32381305770E+01 0.29854160986E+01 0.28161843295E+01
 0.27105469195E+01 0.26591382735E+01 0.26591702307E+01 0.27105619389E+01 0.28161057217E+01
 0.29853427741E+01 0.32381647305E+01 0.36035425684E+01 0.41106136069E+01 0.47729221885E+01
 0.55717447192E+01 0.64490419200E+01 0.73552714128E+01 0.82327554176E+01 0.89469556300E+01
 0.93504917454E+01 0.93504282773E+01 0.89468556931E+01 0.82327220379E+01 0.73552486722E+01
 0.64489575598E+01 0.42680930674E+01 0.38413884346E+01 0.35093701158E+01 0.32676001978E+01
 0.30993537638E+01 0.29853573988E+01 0.29107800035E+01 0.28676859080E+01 0.28534517926E+01
 0.28676980153E+01 0.29107956371E+01 0.29853645549E+01 0.30993485420E+01 0.32675865551E+01
 0.35093599182E+01 0.38413954727E+01 0.42681187102E+01 0.47729439693E+01 0.53151603018E+01
 0.58351921556E+01 0.62671652790E+01 0.65559693326E+01 0.66584451859E+01 0.65559636604E+01
 0.62671495508E+01 0.58351641473E+01 0.53151242257E+01 0.47729081138E+01 0.36143770506E+01
 0.34440419609E+01 0.33315071257E+01 0.32676244912E+01 0.32381716074E+01 0.32289015521E+01
 0.32286632639E+01 0.32303003804E+01 0.32303615134E+01 0.32287711979E+01 0.32289420371E+01
 0.32381394938E+01 0.32675900110E+01 0.33314881953E+01 0.34440051095E+01 0.36143345201E+01
 0.38413989286E+01 0.41106388436E+01 0.43944882246E+01 0.46565872428E+01 0.48587094924E+01
 0.49689111586E+01 0.49689537441E+01 0.48588017788E+01 0.46566545010E+01 0.43944854996E+01
 0.41106024652E+01 0.38413987593E+01 0.34206673087E+01 0.34440450503E+01 0.35093888721E+01
 0.36035444606E+01 0.37079738113E+01 0.38022871189E+01 0.38678243504E+01 0.38912873475E+01
 0.38678205936E+01 0.38022782969E+01 0.37079588097E+01 0.36035207876E+01 0.35093568214E+01
 0.34440085654E+01 0.34206294287E+01 0.34440085654E+01 0.35093568214E+01 0.36035207876E+01
 0.37079588097E+01 0.38022782969E+01 0.38678205936E+01 0.38912873475E+01 0.38678243504E+01
 0.38022871189E+01 0.37079738113E+01 0.36035444606E+01 0.35093888721E+01 0.34440450503E+01
 0.36143770506E+01 0.38413987593E+01 0.41106024652E+01 0.43944854996E+01 0.46566545010E+01
 0.48588017788E+01 0.49689537441E+01 0.49689111586E+01 0.48587094924E+01 0.46565872428E+01
 0.43944882246E+01 0.41106388436E+01 0.38413989286E+01 0.36143345201E+01 0.34440051095E+01
 0.33314881953E+01 0.32675900110E+01 0.32381394938E+01 0.32289420371E+01 0.32287711979E+01
 0.32303615134E+01 0.32303003804E+01 0.32286632639E+01 0.32289015521E+01 0.32381716074E+01
 0.32676244912E+01 0.33315071257E+01 0.34440419609E+01 0.42680930674E+01 0.47729081138E+01
 0.53151242257E+01 0.58351641473E+01 0.62671495508E+01 0.65559636604E+01 0.66584451859E+01
 0.65559693326E+01 0.62671652790E+01 0.58351921556E+01 0.53151603018E+01 0.47729439693E+01
 0.42681187102E+01 0.38413954727E+01 0.35093599182E+01 0.32675865551E+01 0.30993485420E+01
 0.29853645549E+01 0.29107956371E+01 0.28676980153E+01 0.28534517926E+01 0.28676859080E+01
 0.29107800035E+01 0.29853573988E+01 0.30993537638E+01 0.32676001978E+01 0.35093701158E+01
 0.38413884346E+01 0.55716690406E+01 0.64489575598E+01 0.73552486722E+01 0.82327220379E+01
 0.89468556931E+01 0.93504282773E+01 0.93504917454E+01 0.89469556300E+01 0.82327554176E+01
 0.73552714128E+01 0.64490419200E+01 0.55717447192E+01 0.47729221885E+01 0.41106136069E+01
 0.36035425684E+01 0.32381647305E+01 0.29853427741E+01 0.28161057217E+01 0.27105619389E+01
 0.26591702307E+01 0.26591382735E+01 0.27105469195E+01 0.28161843295E+01 0.29854160986E+01
 0.32381305770E+01 0.36034728334E+01 0.41106049423E+01 0.47729203028E+01 0.78018462821E+01
 0.94171937983E+01 0.11152768446E+02 0.12726372173E+02 0.13827571823E+02 0.14223203767E+02
 0.13827554364E+02 0.12726351375E+02 0.11152763100E+02 0.94172141586E+01 0.78018879898E+01
 0.64490950684E+01 0.53151572049E+01 0.43944167512E+01 0.37079588097E+01 0.32290204223E+01
 0.29107925403E+01 0.27104652288E+01 0.25996872440E+01 0.25641408317E+01 0.25996769888E+01
 0.27104525963E+01 0.29107846913E+01 0.32290195938E+01 0.37079545259E+01 0.43943998142E+01
 0.53151213569E+01 0.64490450154E+01 0.12085089538E+02 0.15113232350E+02 0.18046302880E+02
 0.20369295601E+02 0.21651564821E+02 0.21651392290E+02 0.20369092036E+02 0.18046381835E+02
 0.15113297486E+02 0.12084886341E+02 0.94172033784E+01 0.73553789030E+01 0.58352778650E+01
 0.46565049893E+01 0.38021925875E+01 0.32288534513E+01 0.28677837247E+01 0.26590627404E+01
 0.25639801930E+01 0.25641828152E+01 0.26592655109E+01 0.28675605433E+01 0.32285864238E+01
 0.38023328587E+01 0.46567286007E+01 0.58351419891E+01 0.73551691847E+01 0.94173275225E+01
 0.19779468778E+02 0.24520824686E+02 0.28601728434E+02 0.31357866156E+02 0.32331057137E+02
 0.31357862444E+02 0.28601713245E+02 0.24520789843E+02 0.19779415381E+02 0.15113211777E+02
 0.11152615625E+02 0.82327771985E+01 0.62673158509E+01 0.48587060365E+01 0.38676731185E+01
 0.32303580575E+01 0.28536023645E+01 0.26591600543E+01 0.25995295138E+01 0.26591798014E+01
 0.28536282731E+01 0.32303735689E+01 0.38676699851E+01 0.48586930739E+01 0.62673087051E+01
 0.82327952031E+01 0.11152658193E+02 0.15113268753E+02 0.31374867113E+02 0.37667706515E+02
 0.42486356004E+02 0.45101244122E+02 0.45101406021E+02 0.42486529653E+02 0.37667593996E+02
 0.31374781527E+02 0.24520881757E+02 0.18046388039E+02 0.12726184532E+02 0.89468419355E+01
 0.65560612464E+01 0.49689996164E+01 0.38911954338E+01 0.32302119226E+01 0.28677778218E+01
 0.27106606141E+01 0.27104356118E+01 0.28675543389E+01 0.32304654827E+01 0.38915039477E+01
 0.49688468041E+01 0.65558003293E+01 0.89469857348E+01 0.12726451351E+02 0.18046315591E+02
 0.24520699237E+02 0.46476314285E+02 0.53890563347E+02 0.58862552793E+02 0.60617029986E+02
 0.58862616347E+02 0.53890659133E+02 0.46476397308E+02 0.37667634501E+02 0.28601860720E+02
 0.20369229154E+02 0.13827554364E+02 0.93504185559E+01 0.66584420890E+01 0.49690086087E+01
 0.38678243504E+01 0.32286153112E+01 0.29107769067E+01 0.28162139574E+01 0.29107846913E+01
 0.32286207245E+01 0.38678174602E+01 0.49689901266E+01 0.66584257482E+01 0.93504210711E+01
 0.13827578417E+02 0.20369260428E+02 0.28601867365E+02 0.37667595133E+02 0.64292184709E+02
 0.72334526867E+02 0.76755178552E+02 0.76755388447E+02 0.72334806190E+02 0.64292129959E+02
 0.53890542641E+02 0.42486502822E+02 0.31357927527E+02 0.21651412917E+02 0.14223213613E+02
 0.93505151407E+01 0.65560287430E+01 0.48587401521E+01 0.38022220363E+01 0.32289631788E+01
 0.29854224813E+01 0.29853292352E+01 0.32288795820E+01 0.38023122319E+01 0.48587581565E+01
 0.65558271604E+01 0.93504073972E+01 0.14223387200E+02 0.21651527375E+02 0.31357751548E+02
 0.42486368728E+02 0.53890680873E+02 0.83974281752E+02 0.92007132898E+02 0.94892697871E+02
 0.92007127058E+02 0.83974280438E+02 0.72334741108E+02 0.58862329620E+02 0.45101314107E+02
 0.32331196390E+02 0.21651479112E+02 0.13827285095E+02 0.89468774739E+01 0.62674393755E+01
 0.46566510451E+01 0.37076870834E+01 0.32381681515E+01 0.30996435885E+01 0.32381523578E+01
 0.37076677980E+01 0.46566428912E+01 0.62674479579E+01 0.89468938211E+01 0.13827291689E+02
 0.21651462292E+02 0.32331155741E+02 0.45101265340E+02 0.58862290968E+02 0.72334723492E+02
 0.10427510513E+03 0.11121532995E+03 0.11121454045E+03 0.10427422785E+03 0.92007482515E+02
 0.76755678821E+02 0.60616725938E+02 0.45100980578E+02 0.31358221613E+02 0.20369565349E+02
 0.12725941786E+02 0.82323447997E+01 0.58355196046E+01 0.43948375011E+01 0.36031890033E+01
 0.32672724898E+01 0.32679556551E+01 0.36038500715E+01 0.43941192861E+01 0.58348722412E+01
 0.82331506604E+01 0.12726714895E+02 0.20368853562E+02 0.31357461174E+02 0.45101620798E+02
 0.60617382388E+02 0.76754986178E+02 0.92006894066E+02 0.12285498685E+03 0.12711095559E+03
 0.12285487130E+03 0.11121419599E+03 0.94892984599E+02 0.76755943544E+02 0.58862552793E+02
 0.42485748009E+02 0.28601875909E+02 0.18047088499E+02 0.11152768446E+02 0.73545269827E+01
 0.53151211288E+01 0.41113058298E+01 0.35093888721E+01 0.33308106729E+01 0.35093670190E+01
 0.41112830702E+01 0.53151213569E+01 0.73545549854E+01 0.11152805668E+02 0.18047107414E+02
 0.28601867365E+02 0.42485733902E+02 0.58862577696E+02 0.76756041544E+02 0.94893148463E+02
 0.11121437328E+03 0.13626637388E+03 0.13626752845E+03 0.12711084837E+03 0.11121438180E+03
 0.92006540204E+02 0.72335184645E+02 0.53891104633E+02 0.37667021906E+02 0.24520231992E+02
 0.15113910754E+02 0.94178614222E+01 0.64483866461E+01 0.47723154193E+01 0.38419949097E+01
 0.34446377448E+01 0.34434458105E+01 0.38407957400E+01 0.47734912165E+01 0.64495627807E+01
 0.94166491186E+01 0.15112676058E+02 0.24521383845E+02 0.37668239236E+02 0.53890023096E+02
 0.72334130797E+02 0.92007842218E+02 0.11121566588E+03 0.12710973974E+03 0.13626637388E+03
 0.12710973974E+03 0.11121566588E+03 0.92007842218E+02 0.72334130797E+02 0.53890023096E+02
 0.37668239236E+02 0.24521383845E+02 0.15112676058E+02 0.94166491186E+01 0.64495627807E+01
 0.47734912165E+01 0.38407957400E+01 0.34434458105E+01 0.34446377448E+01 0.38419949097E+01
 0.47723154193E+01 0.64483866461E+01 0.94178614222E+01 0.15113910754E+02 0.24520231992E+02
 0.37667021906E+02 0.53891104633E+02 0.72335184645E+02 0.92006540204E+02 0.11121438180E+03
 0.12711084837E+03 0.13626752845E+03 0.12711033262E+03 0.11490169926E+03 0.97858454195E+02
 0.79032841865E+02 0.60573412790E+02 0.43743944957E+02 0.29478325667E+02 0.18596677976E+02
 0.11450241871E+02 0.74999450363E+01 0.54017928384E+01 0.41663040087E+01 0.35475676551E+01
 0.33639283403E+01 0.35476295513E+01 0.41663357980E+01 0.54017624778E+01 0.74999431954E+01
 0.11450344353E+02 0.18596811102E+02 0.29478334708E+02 0.43743784710E+02 0.60573183457E+02
 0.79032652483E+02 0.97858308766E+02 0.11490156091E+03 0.12711023117E+03 0.13158373639E+03
 0.11121550205E+03 0.97858027010E+02 0.81416217385E+02 0.64210761777E+02 0.47802797487E+02
 0.33296318992E+02 0.21641662134E+02 0.13457046869E+02 0.85989257177E+01 0.60347665932E+01
 0.45204667149E+01 0.36867610726E+01 0.33319291599E+01 0.33311131409E+01 0.36859695395E+01
 0.45213246331E+01 0.60355665209E+01 0.85980442245E+01 0.13456238913E+02 0.21642575761E+02
 0.33297159041E+02 0.47801855485E+02 0.64209803938E+02 0.81416960810E+02 0.97858727282E+02
 0.11121447490E+03 0.11881978438E+03 0.11882071900E+03 0.92007655084E+02 0.79032083003E+02
 0.64209930892E+02 0.49228953749E+02 0.35372346389E+02 0.23718515307E+02 0.15069901267E+02
 0.95951685445E+01 0.66021780658E+01 0.48678734313E+01 0.38413269068E+01 0.33326917218E+01
 0.31827137216E+01 0.33327073187E+01 0.38413527093E+01 0.48678726878E+01 0.66021144970E+01
 0.95950743997E+01 0.15069858820E+02 0.23718565133E+02 0.35372443524E+02 0.49229028771E+02
 0.64209941199E+02 0.79032016932E+02 0.92007539661E+02 0.10106183642E+03 0.10433407997E+03
 0.10106192988E+03 0.72334864617E+02 0.60573554307E+02 0.47802230304E+02 0.35371803591E+02
 0.24454742521E+02 0.15969579172E+02 0.10297785692E+02 0.70414986400E+01 0.51606930876E+01
 0.39901459070E+01 0.33533134027E+01 0.30832638582E+01 0.30835279032E+01 0.33535735742E+01
 0.39898768755E+01 0.51604333381E+01 0.70417582205E+01 0.10298014423E+02 0.15969288823E+02
 0.24454534134E+02 0.35372184514E+02 0.47802564921E+02 0.60573283298E+02 0.72334605213E+02
 0.81536984506E+02 0.86641194419E+02 0.86640884229E+02 0.81536652495E+02 0.53890618231E+02
 0.43744731571E+02 0.33296745444E+02 0.23718492042E+02 0.15969444145E+02 0.10551742375E+02
 0.72860306281E+01 0.53562817315E+01 0.41065674976E+01 0.33797273499E+01 0.30194800805E+01
 0.29126254410E+01 0.30194699533E+01 0.33797190101E+01 0.41065766172E+01 0.53563115494E+01
 0.72860619812E+01 0.10551756084E+02 0.15969441241E+02 0.23718491895E+02 0.33296761427E+02
 0.43744769169E+02 0.53890682660E+02 0.62479287673E+02 0.68282109235E+02 0.70339931304E+02
 0.68282047388E+02 0.62479205313E+02 0.37667716979E+02 0.29478266778E+02 0.21642023986E+02
 0.15070368571E+02 0.10297997864E+02 0.72859754098E+01 0.54251158380E+01 0.41709203263E+01
 0.34003879553E+01 0.29803833665E+01 0.28000903669E+01 0.28002447628E+01 0.29805444904E+01
 0.34002364682E+01 0.41707309990E+01 0.54252197826E+01 0.72861283028E+01 0.10297879587E+02
 0.15070203448E+02 0.21642130118E+02 0.29478451929E+02 0.37667674695E+02 0.45147900596E+02
 0.50877758852E+02 0.53993881193E+02 0.53993799517E+02 0.50877701770E+02 0.45148017483E+02
 0.24520938914E+02 0.18595928887E+02 0.13456480589E+02 0.95951652872E+01 0.70417840585E+01
 0.53563166655E+01 0.41707191633E+01 0.34080901300E+01 0.29618548967E+01 0.27350127245E+01
 0.26662291508E+01 0.27350188649E+01 0.29618354465E+01 0.34080324107E+01 0.41706517814E+01
 0.53562746009E+01 0.70417657517E+01 0.95951528269E+01 0.13456483603E+02 0.18595961855E+02
 0.24520974420E+02 0.30445669698E+02 0.35497440861E+02 0.38894698379E+02 0.40092653626E+02
 0.38894805300E+02 0.35497552119E+02 0.30445699066E+02 0.15113365969E+02 0.11450349900E+02
 0.85984097149E+01 0.66016763462E+01 0.51606491797E+01 0.41066688302E+01 0.34002273558E+01
 0.29616107844E+01 0.27136346644E+01 0.26025704032E+01 0.26023398797E+01 0.27133804121E+01
 0.29617942611E+01 0.34004573851E+01 0.41064835539E+01 0.51604072053E+01 0.66018240701E+01
 0.85986150679E+01 0.11450197611E+02 0.15113159845E+02 0.19191004568E+02 0.23073135184E+02
 0.26111700728E+02 0.27778536036E+02 0.27778752689E+02 0.26111969753E+02 0.23073055478E+02
 0.19190902572E+02 0.94172388104E+01 0.75008086055E+01 0.60352021286E+01 0.48677784255E+01
 0.39900073452E+01 0.33798043054E+01 0.29804469177E+01 0.27349051640E+01 0.26024647176E+01
 0.25606538603E+01 0.26024552878E+01 0.27349108425E+01 0.29804886191E+01 0.33798621971E+01
 0.39900314424E+01 0.48677495439E+01 0.60351759325E+01 0.75008300288E+01 0.94172789243E+01
 0.11762884992E+02 0.14263726028E+02 0.16501064468E+02 0.18050398360E+02 0.18604042130E+02
 0.18050452562E+02 0.16501157799E+02 0.14263806802E+02 0.11762896642E+02 0.64489354948E+01
 0.54018309310E+01 0.45209328301E+01 0.38416977417E+01 0.33534228956E+01 0.30195232495E+01
 0.28001946303E+01 0.26663327116E+01 0.26023960259E+01 0.26024886330E+01 0.26664379110E+01
 0.28001276914E+01 0.30194369445E+01 0.33534966175E+01 0.38417948944E+01 0.45208818799E+01
 0.54017768659E+01 0.64490520351E+01 0.76451221410E+01 0.89872772417E+01 0.10325052133E+02
 0.11417837981E+02 0.12033746129E+02 0.12033701714E+02 0.11417815219E+02 0.10325133272E+02
 0.89872988024E+01 0.76449812172E+01 0.47728894077E+01 0.41655509190E+01 0.36863488938E+01
 0.33326897980E+01 0.30833929984E+01 0.29126574613E+01 0.28001986061E+01 0.27350201984E+01
 0.27134669472E+01 0.27350132943E+01 0.28001773790E+01 0.29126208806E+01 0.30833589645E+01
 0.33326817420E+01 0.36863764977E+01 0.41655964539E+01 0.47729313909E+01 0.54805500624E+01
 0.62277235987E+01 0.69475495607E+01 0.75789231219E+01 0.80209465417E+01 0.81806055558E+01
 0.80209186512E+01 0.75788687452E+01 0.69474817021E+01 0.62276636972E+01 0.54805052492E+01
 0.38413897624E+01 0.35475796534E+01 0.33315061383E+01 0.31823053736E+01 0.30833881063E+01
 0.30194748338E+01 0.29804768831E+01 0.29616851447E+01 0.29616983721E+01 0.29804966112E+01
 0.30194716292E+01 0.30833645773E+01 0.31822858046E+01 0.33314957012E+01 0.35475715934E+01
 0.38413909932E+01 0.42102238280E+01 0.46323421530E+01 0.50671568877E+01 0.54617761901E+01
 0.57620391769E+01 0.59242580830E+01 0.59242560900E+01 0.57620317689E+01 0.54617592606E+01
 0.50671280849E+01 0.46323089503E+01 0.42102033146E+01 0.34440316663E+01 0.33646943142E+01
 0.33315492979E+01 0.33327083374E+01 0.33534333302E+01 0.33796983703E+01 0.34002994724E+01
 0.34080200695E+01 0.34003500484E+01 0.33797646018E+01 0.33534617297E+01 0.33326727376E+01
 0.33314847441E+01 0.33646477983E+01 0.34440058820E+01 0.35742457864E+01 0.37496382098E+01
 0.39532914404E+01 0.41593125260E+01 0.43372943978E+01 0.44582812242E+01 0.45012321829E+01
 0.44583690725E+01 0.43373734157E+01 0.41593240561E+01 0.39532722694E+01 0.37496395001E+01
 0.35742650378E+01 0.34440466631E+01 0.35476239176E+01 0.36863957608E+01 0.38417656227E+01
 0.39900265790E+01 0.41065786797E+01 0.41707953685E+01 0.41707958154E+01 0.41065785707E+01
 0.39900233755E+01 0.38417550005E+01 0.36863666509E+01 0.35475745930E+01 0.34439984992E+01
 0.33859223344E+01 0.33738249129E+01 0.33993919018E+01 0.34485382513E+01 0.35049524574E+01
 0.35530788070E+01 0.35805861523E+01 0.35805811501E+01 0.35530803017E+01 0.35049778765E+01
 0.34485718382E+01 0.33994086062E+01 0.33738303967E+01 0.33859457530E+01 0.38414136255E+01
 0.41655793150E+01 0.45208890041E+01 0.48678718951E+01 0.51605856365E+01 0.53563441247E+01
 0.54251528396E+01 0.53562770655E+01 0.51605151458E+01 0.48678509302E+01 0.45209102153E+01
 0.41655975850E+01 0.38414065430E+01 0.35742531359E+01 0.33738129586E+01 0.32356984858E+01
 0.31470761320E+01 0.30931241582E+01 0.30617377438E+01 0.30452945795E+01 0.30401171524E+01
 0.30452176686E+01 0.30616616223E+01 0.30931083988E+01 0.31471048689E+01 0.32357263063E+01
 0.33738309468E+01 0.35742707859E+01 0.47729019730E+01 0.54017660071E+01 0.60351495948E+01
 0.66017127560E+01 0.70416109550E+01 0.72860605148E+01 0.72860701437E+01 0.70416244018E+01
 0.66017207125E+01 0.60351758962E+01 0.54018192887E+01 0.47729452029E+01 0.42102163594E+01
 0.37496412193E+01 0.33993964888E+01 0.31470685722E+01 0.29712852436E+01 0.28520990834E+01
 0.27766562849E+01 0.27395104373E+01 0.27394907583E+01 0.27766246056E+01 0.28520900207E+01
 0.29712842672E+01 0.31470545330E+01 0.33993879569E+01 0.37496493477E+01 0.42102107833E+01
 0.64489702398E+01 0.75006632812E+01 0.85984812528E+01 0.95951200944E+01 0.10297871848E+02
 0.10551689556E+02 0.10297944806E+02 0.95951875323E+01 0.85985071879E+01 0.75006865453E+01
 0.64490178697E+01 0.54805864136E+01 0.46323297810E+01 0.39532455523E+01 0.34485466196E+01
 0.30931621731E+01 0.28520944500E+01 0.26959981643E+01 0.26072500263E+01 0.25782825338E+01
 0.26072736473E+01 0.26960417490E+01 0.28521264538E+01 0.30931511261E+01 0.34485085631E+01
 0.39532150023E+01 0.46323070364E+01 0.54805442583E+01 0.94173260395E+01 0.11450274267E+02
 0.13456605746E+02 0.15070333792E+02 0.15969496273E+02 0.15969379635E+02 0.15070208429E+02
 0.13456690124E+02 0.11450351600E+02 0.94172083457E+01 0.76450228583E+01 0.62277749485E+01
 0.50672172179E+01 0.41592417024E+01 0.35048930686E+01 0.30618111579E+01 0.27767088771E+01
 0.26071777684E+01 0.25279935744E+01 0.25281308698E+01 0.26073189754E+01 0.27765724024E+01
 0.30616611557E+01 0.35050153930E+01 0.41593854501E+01 0.50670836786E+01 0.62275853205E+01
 0.76450804999E+01 0.15113453758E+02 0.18596047041E+02 0.21642010017E+02 0.23718566866E+02
 0.24454813137E+02 0.23718519835E+02 0.21641934675E+02 0.18595966846E+02 0.15113394029E+02
 0.11762981912E+02 0.89871776974E+01 0.69475532177E+01 0.54619168188E+01 0.43372956629E+01
 0.35529380439E+01 0.30452971054E+01 0.27396431566E+01 0.25782378451E+01 0.25279277885E+01
 0.25782316476E+01 0.27396107773E+01 0.30452521637E+01 0.35529222175E+01 0.43373184258E+01
 0.54619335683E+01 0.69475369971E+01 0.89871585832E+01 0.11762997459E+02 0.24520932521E+02
 0.29478444456E+02 0.33296622790E+02 0.35371929482E+02 0.35372151224E+02 0.33296868816E+02
 0.29478278135E+02 0.24520723110E+02 0.19191015186E+02 0.14263833685E+02 0.10324978350E+02
 0.75788272881E+01 0.57621456838E+01 0.44583907621E+01 0.35804728919E+01 0.30399990752E+01
 0.27396047338E+01 0.26073845665E+01 0.26071473497E+01 0.27393662267E+01 0.30402483849E+01
 0.35807469061E+01 0.44581731629E+01 0.57618546440E+01 0.75789960991E+01 0.10325261165E+02
 0.14263755625E+02 0.19190891954E+02 0.37667608970E+02 0.43744665832E+02 0.47802286137E+02
 0.49228909702E+02 0.47802424338E+02 0.43744863677E+02 0.37667736286E+02 0.30445543891E+02
 0.23073032175E+02 0.16501082020E+02 0.11417798640E+02 0.80208215446E+01 0.59242508959E+01
 0.45013473307E+01 0.35805830524E+01 0.30450926442E+01 0.27766244044E+01 0.26962027851E+01
 0.27766375618E+01 0.30451320413E+01 0.35806387566E+01 0.45013718874E+01 0.59242047804E+01
 0.80207482405E+01 0.11417798782E+02 0.16501201638E+02 0.23073180133E+02 0.30445575705E+02
 0.53890488730E+02 0.60573197838E+02 0.64210250526E+02 0.64210331575E+02 0.60573410644E+02
 0.53890704724E+02 0.45147985332E+02 0.35497565580E+02 0.26111779214E+02 0.18050414616E+02
 0.12033726602E+02 0.81805735556E+01 0.59242403462E+01 0.44583857043E+01 0.35531006685E+01
 0.30616501947E+01 0.28520648287E+01 0.28521410852E+01 0.30617409113E+01 0.35530394615E+01
 0.44582648432E+01 0.59242247524E+01 0.81806177210E+01 0.12033708377E+02 0.18050393576E+02
 0.26111866015E+02 0.35497672282E+02 0.45147932747E+02 0.72334722752E+02 0.79031890723E+02
 0.81416400565E+02 0.79032017898E+02 0.72334881685E+02 0.62479319636E+02 0.50877568670E+02
 0.38894702603E+02 0.27778770499E+02 0.18604147792E+02 0.12033610595E+02 0.80209215415E+01
 0.57621715138E+01 0.43373835921E+01 0.35048466965E+01 0.30931101580E+01 0.29714144213E+01
 0.30931137282E+01 0.35048215892E+01 0.43373176591E+01 0.57620953879E+01 0.80208734589E+01
 0.12033598920E+02 0.18604165857E+02 0.27778812334E+02 0.38894750687E+02 0.50877572210E+02
 0.62479229941E+02 0.92007366747E+02 0.97858544537E+02 0.97858067351E+02 0.92006900652E+02
 0.81537077230E+02 0.68282345953E+02 0.53993586337E+02 0.40092277422E+02 0.27778889321E+02
 0.18050692357E+02 0.11417624975E+02 0.75786508967E+01 0.54619917815E+01 0.41595652716E+01
 0.34483433425E+01 0.31468665648E+01 0.31472945226E+01 0.34487494070E+01 0.41590972489E+01
 0.54615688218E+01 0.75791221132E+01 0.11418035558E+02 0.18050183546E+02 0.27778450576E+02
 0.40092795544E+02 0.53994046792E+02 0.68281814520E+02 0.81536559771E+02 0.11121497233E+03
 0.11490285991E+03 0.11121490612E+03 0.10106130001E+03 0.86641052290E+02 0.70340443696E+02
 0.53993865504E+02 0.38894265090E+02 0.26111865270E+02 0.16501593236E+02 0.10325101123E+02
 0.69469465530E+01 0.50671217664E+01 0.39538053012E+01 0.33994181283E+01 0.32351935005E+01
 0.33993909691E+01 0.39537939223E+01 0.50671548525E+01 0.69470082881E+01 0.10325156667E+02
 0.16501619522E+02 0.26111850924E+02 0.38894215996E+02 0.53993813897E+02 0.70340439345E+02
 0.86641113167E+02 0.10106139190E+03 0.12710974870E+03 0.12711073371E+03 0.11882071816E+03
 0.10433398284E+03 0.86640521157E+02 0.68282552136E+02 0.50878273702E+02 0.35497193152E+02
 0.23072646164E+02 0.14264305504E+02 0.89877664707E+01 0.62271507597E+01 0.46318090958E+01
 0.37501401932E+01 0.33743379590E+01 0.33733399248E+01 0.37491433977E+01 0.46328083931E+01
 0.62281522716E+01 0.89867950641E+01 0.14263366559E+02 0.23073687735E+02 0.35498159477E+02
 0.50877200153E+02 0.68281544195E+02 0.86641617424E+02 0.10433510489E+03 0.11881978521E+03
 0.13626611372E+03 0.13158297430E+03 0.11882111163E+03 0.10106193096E+03 0.81535972923E+02
 0.62479230054E+02 0.45148774715E+02 0.30445703402E+02 0.19190184298E+02 0.11762996805E+02
 0.76458367163E+01 0.54805082518E+01 0.42093929585E+01 0.35742726573E+01 0.33867619735E+01
 0.35742726573E+01 0.42093929585E+01 0.54805082518E+01 0.76458367163E+01 0.11762996805E+02
 0.19190184298E+02 0.30445703402E+02 0.45148774715E+02 0.62479230054E+02 0.81535972923E+02
 0.10106193096E+03 0.11882111163E+03 0.13158297430E+03 0.12285498685E+03 0.11121437328E+03
 0.94893148463E+02 0.76756041544E+02 0.58862577696E+02 0.42485733902E+02 0.28601867365E+02
 0.18047107414E+02 0.11152805668E+02 0.73545549854E+01 0.53151213569E+01 0.41112830702E+01
 0.35093670190E+01 0.33308106729E+01 0.35093888721E+01 0.41113058298E+01 0.53151211288E+01
 0.73545269827E+01 0.11152768446E+02 0.18047088499E+02 0.28601875909E+02 0.42485748009E+02
 0.58862552793E+02 0.76755943544E+02 0.94892984599E+02 0.11121419599E+03 0.12285487130E+03
 0.12711095559E+03 0.11121550205E+03 0.97858027010E+02 0.81416217385E+02 0.64210761777E+02
 0.47802797487E+02 0.33296318992E+02 0.21641662134E+02 0.13457046869E+02 0.85989257177E+01
 0.60347665932E+01 0.45204667149E+01 0.36867610726E+01 0.33319291599E+01 0.33311131409E+01
 0.36859695395E+01 0.45213246331E+01 0.60355665209E+01 0.85980442245E+01 0.13456238913E+02
 0.21642575761E+02 0.33297159041E+02 0.47801855485E+02 0.64209803938E+02 0.81416960810E+02
 0.97858727282E+02 0.11121447490E+03 0.11881978438E+03 0.11882071900E+03 0.94893597618E+02
 0.81416645219E+02 0.66096586182E+02 0.50677171163E+02 0.36440175467E+02 0.24449348308E+02