   1   1   0   0
  0.1815141E+02  0.2949908E-09  0.2949908E-09  0.2949908E-09  0.5000000E-15
  1.000000000000000E-004
  CAR 
 unknown system                          
     28.69768912     -1.61295483  301      7.56243477      1.00000000
     -1.613  0.0000E+00  0.0000E+00
     -1.512  0.0000E+00  0.0000E+00
     -1.411  0.0000E+00  0.0000E+00
     -1.310 -0.3365E-33 -0.3400E-34
     -1.209 -0.1295E-29 -0.1309E-30
     -1.108 -0.2980E-26 -0.3012E-27
     -1.007 -0.4097E-23 -0.4142E-24
     -0.906 -0.3362E-20 -0.3401E-21
     -0.805 -0.1646E-17 -0.1666E-18
     -0.704 -0.4639E-15 -0.4703E-16
     -0.603 -0.7982E-13 -0.8111E-14
     -0.502 -0.8123E-11 -0.8288E-12
     -0.401 -0.4864E-09 -0.4997E-10
     -0.299 -0.1700E-07 -0.1767E-08
     -0.198 -0.3415E-06 -0.3627E-07
     -0.097 -0.3836E-05 -0.4238E-06
      0.004 -0.2254E-04 -0.2701E-05
      0.105 -0.5517E-04 -0.8275E-05
      0.206  0.3617E-04 -0.4621E-05
      0.307  0.4482E-03  0.4067E-04
      0.408  0.8622E-03  0.1278E-03
      0.509  0.1016E-02  0.2304E-03
      0.610  0.1791E-02  0.4114E-03
      0.711  0.2912E-02  0.7056E-03
      0.812  0.2888E-02  0.9974E-03
      0.913  0.2691E-02  0.1269E-02
      1.014  0.3016E-02  0.1574E-02
      1.115  0.3111E-02  0.1888E-02
      1.216  0.3471E-02  0.2239E-02
      1.317  0.3867E-02  0.2630E-02
      1.418  0.4993E-02  0.3134E-02
      1.519  0.9233E-02  0.4067E-02
      1.620  0.1975E-01  0.6062E-02
      1.721  0.3992E-01  0.1010E-01
      1.822  0.6729E-01  0.1689E-01
      1.923  0.9673E-01  0.2667E-01
      2.024  0.1207E+00  0.3886E-01
      2.125  0.1268E+00  0.5167E-01
      2.226  0.1157E+00  0.6337E-01
      2.327  0.9864E-01  0.7333E-01
      2.428  0.8423E-01  0.8184E-01
      2.529  0.8037E-01  0.8996E-01
      2.631  0.8817E-01  0.9887E-01
      2.732  0.9584E-01  0.1086E+00
      2.833  0.9494E-01  0.1181E+00
      2.934  0.9496E-01  0.1277E+00
      3.035  0.1076E+00  0.1386E+00
      3.136  0.1297E+00  0.1517E+00
      3.237  0.1457E+00  0.1664E+00
      3.338  0.1404E+00  0.1806E+00
      3.439  0.1180E+00  0.1925E+00
      3.540  0.1011E+00  0.2028E+00
      3.641  0.1002E+00  0.2129E+00
      3.742  0.1048E+00  0.2235E+00
      3.843  0.1093E+00  0.2345E+00
      3.944  0.1149E+00  0.2461E+00
      4.045  0.1164E+00  0.2579E+00
      4.146  0.1094E+00  0.2689E+00
      4.247  0.9706E-01  0.2787E+00
      4.348  0.9221E-01  0.2881E+00
      4.449  0.1090E+00  0.2991E+00
      4.550  0.1377E+00  0.3130E+00
      4.651  0.1452E+00  0.3277E+00
      4.752  0.1087E+00  0.3386E+00
      4.853  0.5049E-01  0.3437E+00
      4.954  0.1195E-01  0.3449E+00
      5.055  0.5195E-02  0.3455E+00
      5.156  0.1248E-01  0.3467E+00
      5.257  0.1526E-01  0.3483E+00
      5.358  0.1077E-01  0.3494E+00
      5.460  0.4914E-02  0.3499E+00
      5.561  0.2535E-02  0.3501E+00
      5.662  0.2025E-02  0.3503E+00
      5.763  0.1036E-02  0.3504E+00
      5.864  0.3153E-02  0.3507E+00
      5.965  0.1035E-01  0.3518E+00
      6.066  0.1667E-01  0.3535E+00
      6.167  0.1641E-01  0.3551E+00
      6.268  0.1092E-01  0.3562E+00
      6.369  0.4509E-02  0.3567E+00
      6.470  0.2403E-02  0.3569E+00
      6.571  0.6767E-02  0.3576E+00
      6.672  0.1011E-01  0.3586E+00
      6.773  0.6058E-02  0.3592E+00
      6.874  0.1374E-02  0.3594E+00
      6.975  0.4210E-02  0.3598E+00
      7.076  0.1156E-01  0.3610E+00
      7.177  0.1417E-01  0.3624E+00
      7.278  0.1126E-01  0.3635E+00
      7.379  0.9888E-02  0.3645E+00
      7.480  0.1132E-01  0.3657E+00
      7.581  0.1182E-01  0.3669E+00
      7.682  0.1077E-01  0.3680E+00
      7.783  0.9022E-02  0.3689E+00
      7.884  0.5166E-02  0.3694E+00
      7.985  0.5592E-03  0.3695E+00
      8.086  0.5050E-03  0.3695E+00
      8.187  0.8293E-02  0.3704E+00
      8.289  0.1739E-01  0.3721E+00
      8.390  0.1696E-01  0.3738E+00
      8.491  0.1063E-01  0.3749E+00
      8.592  0.8345E-02  0.3757E+00
      8.693  0.1119E-01  0.3769E+00
      8.794  0.1372E-01  0.3783E+00
      8.895  0.1026E-01  0.3793E+00
      8.996  0.4401E-02  0.3797E+00
      9.097  0.4565E-02  0.3802E+00
      9.198  0.8455E-02  0.3811E+00
      9.299  0.7163E-02  0.3818E+00
      9.400  0.2582E-02  0.3820E+00
      9.501  0.3056E-02  0.3823E+00
      9.602  0.9324E-02  0.3833E+00
      9.703  0.1620E-01  0.3849E+00
      9.804  0.1782E-01  0.3867E+00
      9.905  0.1188E-01  0.3879E+00
     10.006  0.4605E-02  0.3884E+00
     10.107  0.3343E-02  0.3887E+00
     10.208  0.6539E-02  0.3894E+00
     10.309  0.8734E-02  0.3903E+00
     10.410  0.9464E-02  0.3912E+00
     10.511  0.9414E-02  0.3922E+00
     10.612  0.6107E-02  0.3928E+00
     10.713  0.1883E-02  0.3930E+00
     10.814  0.2408E-02  0.3932E+00
     10.915  0.6859E-02  0.3939E+00
     11.016  0.1050E-01  0.3950E+00
     11.118  0.1202E-01  0.3962E+00
     11.219  0.1227E-01  0.3974E+00
     11.320  0.1303E-01  0.3988E+00
     11.421  0.1548E-01  0.4003E+00
     11.522  0.1595E-01  0.4019E+00
     11.623  0.1186E-01  0.4031E+00
     11.724  0.6818E-02  0.4038E+00
     11.825  0.6533E-02  0.4045E+00
     11.926  0.1092E-01  0.4056E+00
     12.027  0.1350E-01  0.4069E+00
     12.128  0.1197E-01  0.4082E+00
     12.229  0.9708E-02  0.4091E+00
     12.330  0.8786E-02  0.4100E+00
     12.431  0.9711E-02  0.4110E+00
     12.532  0.1293E-01  0.4123E+00
     12.633  0.1489E-01  0.4138E+00
     12.734  0.1201E-01  0.4150E+00
     12.835  0.6369E-02  0.4157E+00
     12.936  0.1971E-02  0.4159E+00
     13.037  0.2802E-02  0.4162E+00
     13.138  0.8660E-02  0.4170E+00
     13.239  0.1497E-01  0.4185E+00
     13.340  0.1801E-01  0.4204E+00
     13.441  0.1550E-01  0.4219E+00
     13.542  0.1008E-01  0.4229E+00
     13.643  0.6784E-02  0.4236E+00
     13.744  0.7312E-02  0.4244E+00
     13.845  0.9823E-02  0.4254E+00
     13.947  0.9956E-02  0.4264E+00
     14.048  0.7276E-02  0.4271E+00
     14.149  0.7993E-02  0.4279E+00
     14.250  0.1491E-01  0.4294E+00
     14.351  0.1909E-01  0.4313E+00
     14.452  0.1575E-01  0.4329E+00
     14.553  0.1119E-01  0.4341E+00
     14.654  0.9076E-02  0.4350E+00
     14.755  0.1199E-01  0.4362E+00
     14.856  0.2083E-01  0.4383E+00
     14.957  0.2813E-01  0.4411E+00
     15.058  0.2484E-01  0.4437E+00
     15.159  0.1435E-01  0.4451E+00
     15.260  0.8442E-02  0.4460E+00
     15.361  0.9767E-02  0.4469E+00
     15.462  0.1171E-01  0.4481E+00
     15.563  0.9116E-02  0.4490E+00
     15.664  0.5725E-02  0.4496E+00
     15.765  0.8231E-02  0.4505E+00
     15.866  0.1162E-01  0.4516E+00
     15.967  0.1285E-01  0.4529E+00
     16.068  0.2156E-01  0.4551E+00
     16.169  0.3147E-01  0.4583E+00
     16.270  0.2444E-01  0.4608E+00
     16.371  0.7979E-02  0.4616E+00
     16.472  0.1515E-02  0.4617E+00
     16.573  0.7952E-02  0.4625E+00
     16.674  0.2045E-01  0.4646E+00
     16.776  0.2933E-01  0.4675E+00
     16.877  0.2636E-01  0.4702E+00
     16.978  0.1728E-01  0.4720E+00
     17.079  0.1186E-01  0.4732E+00
     17.180  0.9682E-02  0.4741E+00
     17.281  0.8521E-02  0.4750E+00
     17.382  0.9821E-02  0.4760E+00
     17.483  0.1595E-01  0.4776E+00
     17.584  0.2432E-01  0.4801E+00
     17.685  0.2667E-01  0.4828E+00
     17.786  0.2238E-01  0.4850E+00
     17.887  0.1991E-01  0.4870E+00
     17.988  0.1859E-01  0.4889E+00
     18.089  0.1500E-01  0.4904E+00
     18.190  0.1482E-01  0.4919E+00
     18.291  0.1971E-01  0.4939E+00
     18.392  0.2036E-01  0.4960E+00
     18.493  0.1285E-01  0.4973E+00
     18.594  0.8767E-02  0.4981E+00
     18.695  0.1213E-01  0.4994E+00
     18.796  0.1384E-01  0.5008E+00
     18.897  0.1548E-01  0.5023E+00
     18.998  0.2226E-01  0.5046E+00
     19.099  0.2861E-01  0.5075E+00
     19.200  0.2772E-01  0.5103E+00
     19.301  0.2011E-01  0.5123E+00
     19.402  0.1522E-01  0.5138E+00
     19.503  0.2031E-01  0.5159E+00
     19.604  0.2644E-01  0.5186E+00
     19.706  0.2104E-01  0.5207E+00
     19.807  0.1018E-01  0.5217E+00
     19.908  0.7956E-02  0.5225E+00
     20.009  0.1497E-01  0.5240E+00
     20.110  0.2329E-01  0.5264E+00
     20.211  0.2648E-01  0.5291E+00
     20.312  0.2179E-01  0.5313E+00
     20.413  0.1278E-01  0.5326E+00
     20.514  0.6323E-02  0.5332E+00
     20.615  0.5475E-02  0.5338E+00
     20.716  0.7621E-02  0.5345E+00
     20.817  0.1236E-01  0.5358E+00
     20.918  0.2026E-01  0.5378E+00
     21.019  0.2473E-01  0.5403E+00
     21.120  0.2244E-01  0.5426E+00
     21.221  0.1785E-01  0.5444E+00
     21.322  0.1397E-01  0.5458E+00
     21.423  0.1236E-01  0.5470E+00
     21.524  0.1405E-01  0.5485E+00
     21.625  0.1462E-01  0.5499E+00
     21.726  0.1238E-01  0.5512E+00
     21.827  0.1210E-01  0.5524E+00
     21.928  0.1440E-01  0.5539E+00
     22.029  0.1707E-01  0.5556E+00
     22.130  0.2053E-01  0.5577E+00
     22.231  0.2262E-01  0.5600E+00
     22.332  0.1774E-01  0.5617E+00
     22.433  0.9668E-02  0.5627E+00
     22.535  0.8744E-02  0.5636E+00
     22.636  0.1529E-01  0.5652E+00
     22.737  0.2131E-01  0.5673E+00
     22.838  0.2059E-01  0.5694E+00
     22.939  0.1526E-01  0.5709E+00
     23.040  0.1295E-01  0.5722E+00
     23.141  0.1365E-01  0.5736E+00
     23.242  0.1357E-01  0.5750E+00
     23.343  0.1343E-01  0.5763E+00
     23.444  0.1428E-01  0.5778E+00
     23.545  0.1440E-01  0.5792E+00
     23.646  0.1121E-01  0.5804E+00
     23.747  0.6559E-02  0.5810E+00
     23.848  0.4580E-02  0.5815E+00
     23.949  0.4930E-02  0.5820E+00
     24.050  0.5414E-02  0.5825E+00
     24.151  0.1082E-01  0.5836E+00
     24.252  0.2256E-01  0.5859E+00
     24.353  0.2601E-01  0.5885E+00
     24.454  0.1541E-01  0.5901E+00
     24.555  0.6906E-02  0.5908E+00
     24.656  0.8010E-02  0.5916E+00
     24.757  0.9380E-02  0.5926E+00
     24.858  0.6481E-02  0.5932E+00
     24.959  0.4118E-02  0.5936E+00
     25.060  0.3685E-02  0.5940E+00
     25.161  0.2877E-02  0.5943E+00
     25.262  0.2503E-02  0.5945E+00
     25.364  0.2926E-02  0.5948E+00
     25.465  0.4078E-02  0.5953E+00
     25.566  0.6331E-02  0.5959E+00
     25.667  0.6970E-02  0.5966E+00
     25.768  0.5861E-02  0.5972E+00
     25.869  0.5903E-02  0.5978E+00
     25.970  0.6397E-02  0.5984E+00
     26.071  0.5629E-02  0.5990E+00
     26.172  0.3655E-02  0.5994E+00
     26.273  0.1332E-02  0.5995E+00
     26.374 -0.7721E-04  0.5995E+00
     26.475 -0.2491E-03  0.5995E+00
     26.576  0.5144E-03  0.5995E+00
     26.677  0.1747E-02  0.5997E+00
     26.778  0.2041E-02  0.5999E+00
     26.879  0.1008E-02  0.6000E+00
     26.980  0.8458E-04  0.6000E+00
     27.081 -0.1076E-03  0.6000E+00
     27.182 -0.4352E-04  0.6000E+00
     27.283 -0.7303E-05  0.6000E+00
     27.384 -0.6417E-06  0.6000E+00
     27.485 -0.3155E-07  0.6000E+00
     27.586 -0.8924E-09  0.6000E+00
     27.687 -0.1473E-10  0.6000E+00
     27.788 -0.1432E-12  0.6000E+00
     27.889 -0.8230E-15  0.6000E+00
     27.990 -0.2862E-17  0.6000E+00
     28.091  0.0000E+00  0.6000E+00
     28.193  0.0000E+00  0.6000E+00
     28.294  0.0000E+00  0.6000E+00
     28.395  0.0000E+00  0.6000E+00
     28.496  0.0000E+00  0.6000E+00
     28.597  0.0000E+00  0.6000E+00
     28.698  0.0000E+00  0.6000E+00
