    1    1   30    1
  0.1815141E+02  0.2949908E-09  0.2949908E-09  0.2949908E-09  0.5000000E-15
  1.000000000000000E-004
  CAR 
 unknown system                          
     11     60      9
 
  0.6250000E-01  0.6250000E-01  0.6250000E-01  0.3906250E-02
    1        0.387045
    2        2.981802
    3        3.036959
    4        3.036959
    5        3.921250
    6        3.921250
    7       23.460689
    8       25.655742
    9       26.697689
 
  0.1875000E+00  0.6250000E-01  0.6250000E-01  0.1171875E-01
    1        0.964182
    2        2.864152
    3        3.167087
    4        3.191918
    5        3.805103
    6        4.001161
    7       22.207241
    8       23.707829
    9       25.919781
 
  0.3125000E+00  0.6250000E-01  0.6250000E-01  0.1171875E-01
    1        1.732732
    2        3.113675
    3        3.217450
    4        3.373396
    5        3.961676
    6        4.419264
    7       17.553393
    8       23.147775
    9       25.295043
 
  0.4375000E+00  0.6250000E-01  0.6250000E-01  0.1171875E-01
    1        1.699615
    2        3.015377
    3        3.080787
    4        4.311157
    5        4.411383
    6        6.060497
    7       13.102685
    8       22.634234
    9       24.171794
 
 -0.4375000E+00  0.6250000E-01  0.6250000E-01  0.1171875E-01
    1        1.641043
    2        2.951685
    3        3.043459
    4        4.426479
    5        4.649211
    6        7.549542
    7       11.014711
    8       22.577004
    9       24.209258
 
 -0.3125000E+00  0.6250000E-01  0.6250000E-01  0.1171875E-01
    1        1.736347
    2        3.046977
    3        3.144494
    4        3.949251
    5        4.480001
    6        5.238715
    7       14.498317
    8       23.126155
    9       24.329507
 
 -0.1875000E+00  0.6250000E-01  0.6250000E-01  0.1171875E-01
    1        1.568059
    2        2.951791
    3        3.233657
    4        3.246875
    5        3.963449
    6        4.123222
    7       19.136361
    8       23.912165
    9       25.012380
 
 -0.6250000E-01  0.6250000E-01  0.6250000E-01  0.1171875E-01
    1        0.687324
    2        2.884799
    3        3.132307
    4        3.134303
    5        3.820933
    6        3.976868
    7       23.267618
    8       24.558525
    9       25.796003
 
  0.1875000E+00  0.1875000E+00  0.6250000E-01  0.1171875E-01
    1        1.237532
    2        2.692630
    3        3.308530
    4        3.322566
    5        3.713251
    6        4.081350
    7       22.484406
    8       23.962346
    9       24.289306
 
  0.3125000E+00  0.1875000E+00  0.6250000E-01  0.2343750E-01
    1        1.991127
    2        2.552434
    3        3.206462
    4        3.554765
    5        4.007824
    6        4.516509
    7       19.566453
    8       21.521120
    9       24.305747
 
  0.4375000E+00  0.1875000E+00  0.6250000E-01  0.2343750E-01
    1        2.028486
    2        2.891330
    3        3.201821
    4        3.495838
    5        4.489462
    6        6.236913
    7       14.920715
    8       21.085395
    9       22.269334
 
 -0.4375000E+00  0.1875000E+00  0.6250000E-01  0.2343750E-01
    1        1.957011
    2        2.760483
    3        3.334475
    4        3.730425
    5        4.615125
    6        8.823373
    7       11.223802
    8       20.673126
    9       21.533801
 
 -0.3125000E+00  0.1875000E+00  0.6250000E-01  0.2343750E-01
    1        2.050860
    2        2.836503
    3        3.329231
    4        3.589168
    5        4.363139
    6        7.155980
    7       13.544507
    8       19.931623
    9       22.807886
 
 -0.1875000E+00  0.1875000E+00  0.6250000E-01  0.2343750E-01
    1        2.188339
    2        2.729975
    3        3.111455
    4        3.534498
    5        3.857679
    6        5.130538
    7       18.012934
    8       20.087855
    9       24.673689
 
 -0.6250000E-01  0.1875000E+00  0.6250000E-01  0.2343750E-01
    1        1.461431
    2        2.736911
    3        3.260736
    4        3.319694
    5        3.766201
    6        4.175158
    7       20.876832
    8       22.702520
    9       25.560502
 
  0.3125000E+00  0.3125000E+00  0.6250000E-01  0.1171875E-01
    1        2.048656
    2        2.200904
    3        3.749031
    4        3.901702
    5        4.377349
    6        4.687311
    7       19.942914
    8       21.000128
    9       21.646402
 
  0.4375000E+00  0.3125000E+00  0.6250000E-01  0.2343750E-01
    1        2.009870
    2        2.147721
    3        3.667160
    4        4.165921
    5        4.527899
    6        6.615004
    7       17.245188
    8       19.001922
    9       19.247507
 
 -0.4375000E+00  0.3125000E+00  0.6250000E-01  0.2343750E-01
    1        2.038937
    2        2.438443
    3        3.423982
    4        3.942492
    5        4.661901
    6        9.564494
    7       13.152923
    8       17.076673
    9       19.489994
 
 -0.3125000E+00  0.3125000E+00  0.6250000E-01  0.2343750E-01
    1        2.304699
    2        2.738690
    3        3.074159
    4        3.787677
    5        4.380265
    6        9.696895
    7       13.318719
    8       15.811793
    9       20.904189
 
 -0.1875000E+00  0.3125000E+00  0.6250000E-01  0.2343750E-01
    1        2.424758
    2        2.754583
    3        3.029196
    4        3.669871
    5        4.082303
    6        7.065306
    7       15.474116
    8       17.642920
    9       22.786276
 
 -0.6250000E-01  0.3125000E+00  0.6250000E-01  0.2343750E-01
    1        1.901977
    2        3.054942
    3        3.251085
    4        3.395852
    5        4.217418
    6        5.086732
    7       16.145982
    8       22.124880
    9       24.274407
 
  0.4375000E+00  0.4375000E+00  0.6250000E-01  0.1171875E-01
    1        1.714967
    2        1.802877
    3        4.452796
    4        4.499417
    5        4.686729
    6        7.652007
    7       16.220344
    8       17.883562
    9       18.661489
 
 -0.4375000E+00  0.4375000E+00  0.6250000E-01  0.2343750E-01
    1        1.735785
    2        1.865529
    3        4.240121
    4        4.444531
    5        4.787609
    6        9.836762
    7       14.281642
    8       16.142324
    9       17.856842
 
 -0.3125000E+00  0.4375000E+00  0.6250000E-01  0.2343750E-01
    1        1.988307
    2        2.345828
    3        3.551029
    4        4.089974
    5        4.637954
    6       11.387359
    7       12.746397
    8       14.844239
    9       19.136451
 
 -0.1875000E+00  0.4375000E+00  0.6250000E-01  0.2343750E-01
    1        2.176857
    2        2.659922
    3        3.393600
    4        3.571160
    5        4.523518
    6        9.746870
    7       11.551346
    8       18.194567
    9       21.109405
 
 -0.6250000E-01  0.4375000E+00  0.6250000E-01  0.2343750E-01
    1        1.780670
    2        2.902814
    3        3.158265
    4        4.057267
    5        4.580049
    6        7.340505
    7       11.980197
    8       22.005289
    9       23.033397
 
 -0.4375000E+00 -0.4375000E+00  0.6250000E-01  0.1171875E-01
    1        1.599419
    2        1.712683
    3        4.565194
    4        4.688979
    5        4.798645
    6        9.165498
    7       14.220289
    8       17.385714
    9       18.138114
 
 -0.3125000E+00 -0.4375000E+00  0.6250000E-01  0.2343750E-01
    1        1.844140
    2        1.959024
    3        3.999848
    4        4.394441
    5        4.676622
    6        8.262971
    7       16.107224
    8       16.808582
    9       18.314818
 
 -0.1875000E+00 -0.4375000E+00  0.6250000E-01  0.2343750E-01
    1        2.072514
    2        2.636300
    3        3.270052
    4        3.717355
    5        4.629584
    6        7.767019
    7       13.903715
    8       19.667114
    9       20.166396
 
 -0.3125000E+00 -0.3125000E+00  0.6250000E-01  0.1171875E-01
    1        1.903426
    2        1.975352
    3        4.165758
    4        4.214530
    5        4.535317
    6        6.004494
    7       18.657200
    8       18.984231
    9       19.647790
 
 -0.1875000E+00 -0.3125000E+00  0.6250000E-01  0.2343750E-01
    1        2.151488
    2        2.369633
    3        3.325194
    4        3.852124
    5        4.321070
    6        5.297460
    7       18.339002
    8       20.271153
    9       21.823284
 
 -0.1875000E+00 -0.1875000E+00  0.6250000E-01  0.1171875E-01
    1        1.839092
    2        2.450305
    3        3.432195
    4        3.587609
    5        3.934897
    6        4.220465
    7       21.251456
    8       22.600379
    9       23.593629
 
  0.1875000E+00  0.1875000E+00  0.1875000E+00  0.3906250E-02
    1        1.190657
    2        2.945628
    3        3.183039
    4        3.183039
    5        3.927039
    6        3.927039
    7       20.633350
    8       24.221686
    9       26.692930
 
  0.3125000E+00  0.1875000E+00  0.1875000E+00  0.1171875E-01
    1        1.833884
    2        2.760042
    3        3.256063
    4        3.375315
    5        3.697685
    6        4.528659
    7       19.371040
    8       21.359084
    9       26.094413
 
  0.4375000E+00  0.1875000E+00  0.1875000E+00  0.1171875E-01
    1        2.327319
    2        2.802773
    3        3.198311
    4        3.489456
    5        3.851414
    6        5.953470
    7       16.647484
    8       18.773214
    9       24.757635
 
 -0.4375000E+00  0.1875000E+00  0.1875000E+00  0.1171875E-01
    1        2.095991
    2        2.771227
    3        3.397246
    4        3.595805
    5        4.389912
    6        8.335316
    7       12.405160
    8       18.941228
    9       23.486912
 
 -0.3125000E+00  0.1875000E+00  0.1875000E+00  0.1171875E-01
    1        1.988674
    2        2.749368
    3        3.450302
    4        3.502289
    5        4.675957
    6        8.274359
    7       12.313771
    8       20.060866
    9       21.965763
 
 -0.1875000E+00  0.1875000E+00  0.1875000E+00  0.1171875E-01
    1        2.049697
    2        2.673923
    3        3.236848
    4        3.582428
    5        4.537217
    6        5.585657
    7       16.529709
    8       21.734347
    9       21.914602
 
  0.3125000E+00  0.3125000E+00  0.1875000E+00  0.1171875E-01
    1        1.920903
    2        2.888267
    3        3.142506
    4        3.380662
    5        4.341588
    6        4.519468
    7       17.763145
    8       23.282592
    9       23.434536
 
  0.4375000E+00  0.3125000E+00  0.1875000E+00  0.2343750E-01
    1        2.306979
    2        2.684588
    3        2.953046
    4        3.797951
    5        4.165462
    6        6.101743
    7       16.814794
    8       18.923249
    9       22.184904
 
 -0.4375000E+00  0.3125000E+00  0.1875000E+00  0.2343750E-01
    1        2.495383
    2        2.582225
    3        2.908880
    4        3.875535
    5        4.363492
    6        8.509483
    7       14.500007
    8       16.744989
    9       20.144209
 
 -0.3125000E+00  0.3125000E+00  0.1875000E+00  0.2343750E-01
    1        2.292194
    2        2.538034
    3        3.155362
    4        3.801978
    5        4.602362
    6       10.500102
    7       11.890054
    8       17.637452
    9       18.677358
 
 -0.1875000E+00  0.3125000E+00  0.1875000E+00  0.2343750E-01
    1        2.219930
    2        2.432939
    3        3.158209
    4        4.063833
    5        4.422196
    6        7.487116
    7       15.803139
    8       17.917432
    9       19.531275
 
  0.4375000E+00  0.4375000E+00  0.1875000E+00  0.1171875E-01
    1        1.989959
    2        2.387867
    3        3.540618
    4        3.832505
    5        4.671746
    6        7.038770
    7       15.475044
    8       19.293201
    9       20.479329
 
 -0.4375000E+00  0.4375000E+00  0.1875000E+00  0.2343750E-01
    1        2.083765
    2        2.233144
    3        3.429479
    4        4.201871
    5        4.637309
    6        9.184570
    7       15.022953
    8       16.708902
    9       17.472150
 
 -0.3125000E+00  0.4375000E+00  0.1875000E+00  0.2343750E-01
    1        2.218172
    2        2.530069
    3        3.039869
    4        3.981773
    5        4.782976
    6       12.116827
    7       13.360521
    8       14.929011
    9       16.178940
 
 -0.1875000E+00  0.4375000E+00  0.1875000E+00  0.2343750E-01
    1        2.347170
    2        2.537117
    3        2.956583
    4        3.973428
    5        4.619068
    6       10.251064
    7       13.770067
    8       16.064613
    9       17.632065
 
 -0.4375000E+00 -0.4375000E+00  0.1875000E+00  0.1171875E-01
    1        1.802609
    2        2.061086
    3        4.020850
    4        4.283628
    5        4.696832
    6       10.422378
    7       14.036942
    8       14.805443
    9       19.136161
 
 -0.3125000E+00 -0.4375000E+00  0.1875000E+00  0.2343750E-01
    1        1.978361
    2        2.148581
    3        3.634969
    4        4.201478
    5        4.784019
    6       10.895258
    7       14.278796
    8       15.014386
    9       16.970716
 
 -0.3125000E+00 -0.3125000E+00  0.1875000E+00  0.1171875E-01
    1        1.881149
    2        2.169386
    3        3.839885
    4        4.089696
    5        4.720590
    6        8.758194
    7       14.663379
    8       16.721150
    9       19.594429
 
  0.3125000E+00  0.3125000E+00  0.3125000E+00  0.3906250E-02
    1        1.690222
    2        3.132129
    3        3.132129
    4        4.101036
    5        4.241482
    6        4.241482
    7       15.921713
    8       23.531304
    9       25.952563
 
  0.4375000E+00  0.3125000E+00  0.3125000E+00  0.1171875E-01
    1        1.947951
    2        2.976187
    3        3.251839
    4        3.685116
    5        4.144883
    6        5.950941
    7       14.738654
    8       20.946249
    9       24.288835
 
 -0.4375000E+00  0.3125000E+00  0.3125000E+00  0.1171875E-01
    1        2.372274
    2        2.788905
    3        3.148378
    4        3.626789
    5        4.171647
    6        8.245714
    7       14.311203
    8       16.585104
    9       23.324272
 
 -0.3125000E+00  0.3125000E+00  0.3125000E+00  0.1171875E-01
    1        2.095083
    2        2.606422
    3        3.339927
    4        3.915826
    5        4.475575
    6       11.092677
    7       12.262967
    8       15.185981
    9       20.942388
 
  0.4375000E+00  0.4375000E+00  0.3125000E+00  0.1171875E-01
    1        1.851207
    2        2.909984
    3        3.255280
    4        3.695396
    5        4.633907
    6        6.625510
    7       13.288844
    8       22.297577
    9       22.987616
 
 -0.4375000E+00  0.4375000E+00  0.3125000E+00  0.2343750E-01
    1        2.191125
    2        2.652042
    3        3.293254
    4        3.623169
    5        4.533398
    6        8.695292
    7       12.577051
    8       19.114389
    9       20.313479
 
 -0.3125000E+00  0.4375000E+00  0.3125000E+00  0.2343750E-01
    1        2.260525
    2        2.594247
    3        3.053671
    4        3.922502
    5        4.617719
    6       11.426414
    7       12.550891
    8       15.314438
    9       18.372863
 
 -0.4375000E+00 -0.4375000E+00  0.3125000E+00  0.1171875E-01
    1        2.079001
    2        2.635743
    3        3.387970
    4        3.695548
    5        4.604621
    6       10.121739
    7       11.643483
    8       17.513911
    9       21.282759
 
  0.4375000E+00  0.4375000E+00  0.4375000E+00  0.3906250E-02
    1        1.597850
    2        3.008329
    3        3.008329
    4        4.591346
    5        4.591346
    6        6.602891
    7       11.815120
    8       22.799939
    9       24.969844
 
 -0.4375000E+00  0.4375000E+00  0.4375000E+00  0.1171875E-01
    1        1.817002
    2        2.858318
    3        3.181155
    4        4.051373
    5        4.574584
    6        8.259536
    7       11.120701
    8       21.251801
    9       23.520808
