<?xml version="1.0" encoding="ISO-8859-1"?>
<modeling>
 <generator>
  <i name="program" type="string">vasp </i>
  <i name="version" type="string">5.3.5  </i>
  <i name="subversion" type="string">31Mar14 (build Jan 09 2015 16:57:47) complex                          serial </i>
  <i name="platform" type="string">LinuxIFC </i>
  <i name="date" type="string">2015 03 24 </i>
  <i name="time" type="string">14:26:01 </i>
 </generator>
 <incar>
  <i type="string" name="PREC">normal</i>
  <i type="int" name="IBRION">     2</i>
  <i type="int" name="NSW">    30</i>
  <i type="int" name="ISIF">     2</i>
  <i name="ENCUT">    350.00000000</i>
 </incar>
 <kpoints>
  <generation param="Monkhorst-Pack">
   <v type="int" name="divisions">       8        8        8 </v>
   <v name="usershift">      0.00000000       0.00000000       0.00000000 </v>
   <v name="genvec1">      0.12500000       0.00000000       0.00000000 </v>
   <v name="genvec2">      0.00000000       0.12500000       0.00000000 </v>
   <v name="genvec3">      0.00000000       0.00000000       0.12500000 </v>
   <v name="shift">      0.50000000       0.50000000       0.50000000 </v>
  </generation>
  <varray name="kpointlist" >
   <v>       0.06250000       0.06250000       0.06250000 </v>
   <v>       0.18750000       0.06250000       0.06250000 </v>
   <v>       0.31250000       0.06250000       0.06250000 </v>
   <v>       0.43750000       0.06250000       0.06250000 </v>
   <v>      -0.43750000       0.06250000       0.06250000 </v>
   <v>      -0.31250000       0.06250000       0.06250000 </v>
   <v>      -0.18750000       0.06250000       0.06250000 </v>
   <v>      -0.06250000       0.06250000       0.06250000 </v>
   <v>       0.18750000       0.18750000       0.06250000 </v>
   <v>       0.31250000       0.18750000       0.06250000 </v>
   <v>       0.43750000       0.18750000       0.06250000 </v>
   <v>      -0.43750000       0.18750000       0.06250000 </v>
   <v>      -0.31250000       0.18750000       0.06250000 </v>
   <v>      -0.18750000       0.18750000       0.06250000 </v>
   <v>      -0.06250000       0.18750000       0.06250000 </v>
   <v>       0.31250000       0.31250000       0.06250000 </v>
   <v>       0.43750000       0.31250000       0.06250000 </v>
   <v>      -0.43750000       0.31250000       0.06250000 </v>
   <v>      -0.31250000       0.31250000       0.06250000 </v>
   <v>      -0.18750000       0.31250000       0.06250000 </v>
   <v>      -0.06250000       0.31250000       0.06250000 </v>
   <v>       0.43750000       0.43750000       0.06250000 </v>
   <v>      -0.43750000       0.43750000       0.06250000 </v>
   <v>      -0.31250000       0.43750000       0.06250000 </v>
   <v>      -0.18750000       0.43750000       0.06250000 </v>
   <v>      -0.06250000       0.43750000       0.06250000 </v>
   <v>      -0.43750000      -0.43750000       0.06250000 </v>
   <v>      -0.31250000      -0.43750000       0.06250000 </v>
   <v>      -0.18750000      -0.43750000       0.06250000 </v>
   <v>      -0.31250000      -0.31250000       0.06250000 </v>
   <v>      -0.18750000      -0.31250000       0.06250000 </v>
   <v>      -0.18750000      -0.18750000       0.06250000 </v>
   <v>       0.18750000       0.18750000       0.18750000 </v>
   <v>       0.31250000       0.18750000       0.18750000 </v>
   <v>       0.43750000       0.18750000       0.18750000 </v>
   <v>      -0.43750000       0.18750000       0.18750000 </v>
   <v>      -0.31250000       0.18750000       0.18750000 </v>
   <v>      -0.18750000       0.18750000       0.18750000 </v>
   <v>       0.31250000       0.31250000       0.18750000 </v>
   <v>       0.43750000       0.31250000       0.18750000 </v>
   <v>      -0.43750000       0.31250000       0.18750000 </v>
   <v>      -0.31250000       0.31250000       0.18750000 </v>
   <v>      -0.18750000       0.31250000       0.18750000 </v>
   <v>       0.43750000       0.43750000       0.18750000 </v>
   <v>      -0.43750000       0.43750000       0.18750000 </v>
   <v>      -0.31250000       0.43750000       0.18750000 </v>
   <v>      -0.18750000       0.43750000       0.18750000 </v>
   <v>      -0.43750000      -0.43750000       0.18750000 </v>
   <v>      -0.31250000      -0.43750000       0.18750000 </v>
   <v>      -0.31250000      -0.31250000       0.18750000 </v>
   <v>       0.31250000       0.31250000       0.31250000 </v>
   <v>       0.43750000       0.31250000       0.31250000 </v>
   <v>      -0.43750000       0.31250000       0.31250000 </v>
   <v>      -0.31250000       0.31250000       0.31250000 </v>
   <v>       0.43750000       0.43750000       0.31250000 </v>
   <v>      -0.43750000       0.43750000       0.31250000 </v>
   <v>      -0.31250000       0.43750000       0.31250000 </v>
   <v>      -0.43750000      -0.43750000       0.31250000 </v>
   <v>       0.43750000       0.43750000       0.43750000 </v>
   <v>      -0.43750000       0.43750000       0.43750000 </v>
  </varray>
  <varray name="weights" >
   <v>       0.00390625 </v>
   <v>       0.01171875 </v>
   <v>       0.01171875 </v>
   <v>       0.01171875 </v>
   <v>       0.01171875 </v>
   <v>       0.01171875 </v>
   <v>       0.01171875 </v>
   <v>       0.01171875 </v>
   <v>       0.01171875 </v>
   <v>       0.02343750 </v>
   <v>       0.02343750 </v>
   <v>       0.02343750 </v>
   <v>       0.02343750 </v>
   <v>       0.02343750 </v>
   <v>       0.02343750 </v>
   <v>       0.01171875 </v>
   <v>       0.02343750 </v>
   <v>       0.02343750 </v>
   <v>       0.02343750 </v>
   <v>       0.02343750 </v>
   <v>       0.02343750 </v>
   <v>       0.01171875 </v>
   <v>       0.02343750 </v>
   <v>       0.02343750 </v>
   <v>       0.02343750 </v>
   <v>       0.02343750 </v>
   <v>       0.01171875 </v>
   <v>       0.02343750 </v>
   <v>       0.02343750 </v>
   <v>       0.01171875 </v>
   <v>       0.02343750 </v>
   <v>       0.01171875 </v>
   <v>       0.00390625 </v>
   <v>       0.01171875 </v>
   <v>       0.01171875 </v>
   <v>       0.01171875 </v>
   <v>       0.01171875 </v>
   <v>       0.01171875 </v>
   <v>       0.01171875 </v>
   <v>       0.02343750 </v>
   <v>       0.02343750 </v>
   <v>       0.02343750 </v>
   <v>       0.02343750 </v>
   <v>       0.01171875 </v>
   <v>       0.02343750 </v>
   <v>       0.02343750 </v>
   <v>       0.02343750 </v>
   <v>       0.01171875 </v>
   <v>       0.02343750 </v>
   <v>       0.01171875 </v>
   <v>       0.00390625 </v>
   <v>       0.01171875 </v>
   <v>       0.01171875 </v>
   <v>       0.01171875 </v>
   <v>       0.01171875 </v>
   <v>       0.02343750 </v>
   <v>       0.02343750 </v>
   <v>       0.01171875 </v>
   <v>       0.00390625 </v>
   <v>       0.01171875 </v>
  </varray>
 </kpoints>
 <parameters>
  <separator name="general" >
   <i type="string" name="SYSTEM">unknown system</i>
   <i type="logical" name="LCOMPAT"> F  </i>
  </separator>
  <separator name="electronic" >
   <i type="string" name="PREC">normal</i>
   <i name="ENMAX">    350.00000000</i>
   <i name="ENAUG">    412.49600000</i>
   <i name="EDIFF">      0.00010000</i>
   <i type="int" name="IALGO">    38</i>
   <i type="int" name="IWAVPR">    11</i>
   <i type="int" name="NBANDS">     9</i>
   <i name="NELECT">     11.00000000</i>
   <i type="int" name="TURBO">     0</i>
   <i type="int" name="IRESTART">     0</i>
   <i type="int" name="NREBOOT">     0</i>
   <i type="int" name="NMIN">     0</i>
   <i name="EREF">      0.00000000</i>
   <separator name="electronic smearing" >
    <i type="int" name="ISMEAR">     1</i>
    <i name="SIGMA">      0.20000000</i>
    <i name="KSPACING">      0.50000000</i>
    <i type="logical" name="KGAMMA"> T  </i>
   </separator>
   <separator name="electronic projectors" >
    <i type="logical" name="LREAL"> F  </i>
    <v name="ROPT">      0.00000000</v>
    <i type="int" name="LMAXPAW">  -100</i>
    <i type="int" name="LMAXMIX">     2</i>
    <i type="logical" name="NLSPLINE"> F  </i>
   </separator>
   <separator name="electronic startup" >
    <i type="int" name="ISTART">     0</i>
    <i type="int" name="ICHARG">     2</i>
    <i type="int" name="INIWAV">     1</i>
   </separator>
   <separator name="electronic spin" >
    <i type="int" name="ISPIN">     1</i>
    <i type="logical" name="LNONCOLLINEAR"> F  </i>
    <v name="MAGMOM">      1.00000000</v>
    <i name="NUPDOWN">     -1.00000000</i>
    <i type="logical" name="LSORBIT"> F  </i>
    <v name="SAXIS">      0.00000000      0.00000000      1.00000000</v>
    <i type="logical" name="LSPIRAL"> F  </i>
    <v name="QSPIRAL">      0.00000000      0.00000000      0.00000000</v>
    <i type="logical" name="LZEROZ"> F  </i>
   </separator>
   <separator name="electronic exchange-correlation" >
    <i type="logical" name="LASPH"> F  </i>
    <i type="logical" name="LMETAGGA"> F  </i>
   </separator>
   <separator name="electronic convergence" >
    <i type="int" name="NELM">    60</i>
    <i type="int" name="NELMDL">    -5</i>
    <i type="int" name="NELMIN">     2</i>
    <i name="ENINI">    350.00000000</i>
    <separator name="electronic convergence detail" >
     <i type="logical" name="LDIAG"> T  </i>
     <i type="logical" name="LSUBROT"> F  </i>
     <i name="WEIMIN">      0.00100000</i>
     <i name="EBREAK">      0.00000278</i>
     <i name="DEPER">      0.30000000</i>
     <i type="int" name="NRMM">     4</i>
     <i name="TIME">      0.40000000</i>
    </separator>
   </separator>
   <separator name="electronic mixer" >
    <i name="AMIX">      0.40000000</i>
    <i name="BMIX">      1.00000000</i>
    <i name="AMIN">      0.10000000</i>
    <i name="AMIX_MAG">      1.60000000</i>
    <i name="BMIX_MAG">      1.00000000</i>
    <separator name="electronic mixer details" >
     <i type="int" name="IMIX">     4</i>
     <i type="int" name="MAXMIX">   -45</i>
     <i name="WC">    100.00000000</i>
     <i type="int" name="INIMIX">     1</i>
     <i type="int" name="MIXPRE">     1</i>
     <i type="int" name="MREMOVE">     5</i>
    </separator>
   </separator>
   <separator name="electronic dipolcorrection" >
    <i type="logical" name="LDIPOL"> F  </i>
    <i type="logical" name="LMONO"> F  </i>
    <i type="int" name="IDIPOL">     0</i>
    <i name="EPSILON">      1.00000000</i>
    <v name="DIPOL">   -100.00000000   -100.00000000   -100.00000000</v>
    <i name="EFIELD">      0.00000000</i>
   </separator>
  </separator>
  <separator name="grids" >
   <i type="int" name="NGX">    14</i>
   <i type="int" name="NGY">    14</i>
   <i type="int" name="NGZ">    14</i>
   <i type="int" name="NGXF">    28</i>
   <i type="int" name="NGYF">    28</i>
   <i type="int" name="NGZF">    28</i>
   <i type="logical" name="ADDGRID"> F  </i>
  </separator>
  <separator name="ionic" >
   <i type="int" name="NSW">    30</i>
   <i type="int" name="IBRION">     2</i>
   <i type="int" name="ISIF">     2</i>
   <i name="PSTRESS">      0.00000000</i>
   <i name="EDIFFG">      0.00100000</i>
   <i type="int" name="NFREE">     1</i>
   <i name="POTIM">      0.50000000</i>
   <i name="SMASS">     -3.00000000</i>
   <i name="SCALEE">      1.00000000</i>
  </separator>
  <separator name="ionic md" >
   <i name="TEBEG">      0.00010000</i>
   <i name="TEEND">      0.00010000</i>
   <i type="int" name="NBLOCK">     1</i>
   <i type="int" name="KBLOCK">    30</i>
   <i type="int" name="NPACO">   256</i>
   <i name="APACO">     16.00000000</i>
  </separator>
  <separator name="symmetry" >
   <i type="int" name="ISYM">     2</i>
   <i name="SYMPREC">      0.00001000</i>
  </separator>
  <separator name="dos" >
   <i type="logical" name="LORBIT"> F  </i>
   <v name="RWIGS">     -1.00000000</v>
   <i type="int" name="NEDOS">   301</i>
   <i name="EMIN">     10.00000000</i>
   <i name="EMAX">    -10.00000000</i>
   <i name="EFERMI">      0.00000000</i>
  </separator>
  <separator name="writing" >
   <i type="int" name="NWRITE">     2</i>
   <i type="logical" name="LWAVE"> T  </i>
   <i type="logical" name="LCHARG"> T  </i>
   <i type="logical" name="LPARD"> F  </i>
   <i type="logical" name="LVTOT"> F  </i>
   <i type="logical" name="LVHAR"> F  </i>
   <i type="logical" name="LELF"> F  </i>
   <i type="logical" name="LOPTICS"> F  </i>
   <v name="STM">      0.00000000      0.00000000      0.00000000      0.00000000      0.00000000      0.00000000      0.00000000</v>
  </separator>
  <separator name="performance" >
   <i type="int" name="NPAR">     1</i>
   <i type="int" name="NSIM">     4</i>
   <i type="int" name="NBLK">    -1</i>
   <i type="logical" name="LPLANE"> T  </i>
   <i type="logical" name="LSCALAPACK"> F  </i>
   <i type="logical" name="LSCAAWARE"> F  </i>
   <i type="logical" name="LSCALU"> F  </i>
   <i type="logical" name="LASYNC"> F  </i>
   <i type="logical" name="LORBITALREAL"> F  </i>
  </separator>
  <separator name="miscellaneous" >
   <i type="int" name="IDIOT">     3</i>
   <i type="logical" name="LMUSIC"> F  </i>
   <v name="POMASS">    107.86800000</v>
   <v name="DARWINR">      0.00000000</v>
   <v name="DARWINV">      1.00000000</v>
   <i type="logical" name="LCORR"> T  </i>
  </separator>
  <i type="logical" name="GGA_COMPAT"> T  </i>
  <i type="logical" name="LBERRY"> F  </i>
  <i type="int" name="ICORELEVEL">     0</i>
  <i type="logical" name="LDAU"> F  </i>
  <i type="int" name="I_CONSTRAINED_M">     0</i>
  <separator name="electronic exchange-correlation" >
   <i type="string" name="GGA">--</i>
   <i type="int" name="VOSKOWN">     0</i>
   <i type="logical" name="LHFCALC"> F  </i>
   <i type="string" name="PRECFOCK"></i>
   <i type="logical" name="LSYMGRAD"> F  </i>
   <i type="logical" name="LHFONE"> F  </i>
   <i type="logical" name="LRHFCALC"> F  </i>
   <i type="logical" name="LTHOMAS"> F  </i>
   <i type="logical" name="LMODELHF"> F  </i>
   <i name="ENCUT4O">     -1.00000000</i>
   <i type="int" name="EXXOEP">     0</i>
   <i type="int" name="FOURORBIT">     0</i>
   <i name="AEXX">      0.00000000</i>
   <i name="HFALPHA">      0.00000000</i>
   <i name="MCALPHA">      0.00000000</i>
   <i name="ALDAX">      1.00000000</i>
   <i name="AGGAX">      1.00000000</i>
   <i name="ALDAC">      1.00000000</i>
   <i name="AGGAC">      1.00000000</i>
   <i type="int" name="NKREDX">     1</i>
   <i type="int" name="NKREDY">     1</i>
   <i type="int" name="NKREDZ">     1</i>
   <i type="logical" name="SHIFTRED"> F  </i>
   <i type="logical" name="ODDONLY"> F  </i>
   <i type="logical" name="EVENONLY"> F  </i>
   <i type="int" name="LMAXFOCK">     0</i>
   <i type="int" name="NMAXFOCKAE">     0</i>
   <i type="logical" name="LFOCKAEDFT"> F  </i>
   <i name="HFSCREEN">      0.00000000</i>
   <i name="HFSCREENC">      0.00000000</i>
   <i type="int" name="NBANDSGWLOW">     0</i>
  </separator>
  <separator name="vdW DFT" >
   <i type="logical" name="LUSE_VDW"> F  </i>
   <i name="Zab_VDW">     -0.84910000</i>
   <i name="PARAM1">      0.12340000</i>
   <i name="PARAM2">      1.00000000</i>
   <i name="PARAM3">      0.00000000</i>
  </separator>
  <separator name="model GW" >
   <i type="int" name="MODEL_GW">     0</i>
   <i name="MODEL_EPS0">     10.89084804</i>
   <i name="MODEL_ALPHA">      1.00000000</i>
  </separator>
  <separator name="linear response parameters" >
   <i type="logical" name="LEPSILON"> F  </i>
   <i type="logical" name="LRPA"> F  </i>
   <i type="logical" name="LNABLA"> F  </i>
   <i type="logical" name="LVEL"> F  </i>
   <i type="int" name="KINTER">     0</i>
   <i name="CSHIFT">      0.10000000</i>
   <i name="OMEGAMAX">     -1.00000000</i>
   <i name="DEG_THRESHOLD">      0.00200000</i>
  </separator>
  <separator name="orbital magnetization" >
   <i type="logical" name="NUCIND"> F  </i>
   <v name="MAGPOS">      0.00000000      0.00000000      0.00000000</v>
   <i type="logical" name="LNICSALL"> T  </i>
   <i type="logical" name="ORBITALMAG"> F  </i>
   <i type="logical" name="LMAGBLOCH"> F  </i>
   <i type="logical" name="LCHIMAG"> F  </i>
   <i type="logical" name="LGAUGE"> T  </i>
   <i type="int" name="MAGATOM">     0</i>
   <v name="MAGDIPOL">      0.00000000      0.00000000      0.00000000</v>
   <v name="AVECCONST">      0.00000000      0.00000000      0.00000000</v>
  </separator>
  <separator name="response functions" >
   <i type="logical" name="LADDER"> F  </i>
   <i type="logical" name="LFXC"> F  </i>
   <i type="logical" name="LHARTREE"> T  </i>
   <i type="int" name="IBSE">     0</i>
   <i type="logical" name="LTCTE"> F  </i>
   <i type="logical" name="LTETE"> F  </i>
   <i type="logical" name="LTRIPLET"> F  </i>
   <i type="logical" name="LFXCEPS"> F  </i>
   <i type="logical" name="LFXHEG"> F  </i>
   <i type="logical" name="L2ORDER"> F  </i>
   <i type="logical" name="LUSEW"> F  </i>
   <i name="ENCUTGW">     -2.00000000</i>
   <i name="ENCUTGWSOFT">     -2.00000000</i>
   <i name="ENCUTLF">     -1.00000000</i>
   <i type="int" name="LMAXMP2">    -1</i>
   <i name="SCISSOR">      0.00000000</i>
   <i type="int" name="NOMEGA">     0</i>
   <i type="int" name="NOMEGAR">     0</i>
   <i type="int" name="NBANDSGW">    -1</i>
   <i type="int" name="NBANDSO">    -1</i>
   <i type="int" name="NBANDSV">    -1</i>
   <i type="int" name="NELM">     1</i>
   <i type="int" name="DIM">     3</i>
   <i type="int" name="ANTIRES">     0</i>
   <i name="OMEGAMAX">    -30.00000000</i>
   <i name="OMEGAMIN">    -30.00000000</i>
   <i name="OMEGATL">   -200.00000000</i>
   <i type="int" name="OMEGAGRID">     0</i>
   <i name="CSHIFT">     -0.10000000</i>
   <i type="logical" name="SELFENERGY"> F  </i>
   <i type="logical" name="LSPECTRAL"> F  </i>
   <i type="logical" name="ODDONLYGW"> F  </i>
   <i type="logical" name="EVENONLYGW"> F  </i>
   <i type="int" name="NKREDLFX">     1</i>
   <i type="int" name="NKREDLFY">     1</i>
   <i type="int" name="NKREDLFZ">     1</i>
   <i type="int" name="MAXMEM">  1800</i>
   <i type="int" name="TELESCOPE">     0</i>
   <i type="int" name="TAUPAR">     1</i>
  </separator>
  <separator name="External order field" >
   <i name="OFIELD_KAPPA">      0.00000000</i>
   <v name="OFIELD_K">      0.00000000      0.00000000      0.00000000</v>
   <i name="OFIELD_Q6_NEAR">      0.00000000</i>
   <i name="OFIELD_Q6_FAR">      0.00000000</i>
   <i name="OFIELD_A">      0.00000000</i>
  </separator>
 </parameters>
 <atominfo>
  <atoms>       1 </atoms>
  <types>       1 </types>
  <array name="atoms" >
   <dimension dim="1">ion</dimension>
   <field type="string">element</field>
   <field type="int">atomtype</field>
   <set>
    <rc><c>Ag</c><c>   1</c></rc>
   </set>
  </array>
  <array name="atomtypes" >
   <dimension dim="1">type</dimension>
   <field type="int">atomspertype</field>
   <field type="string">element</field>
   <field>mass</field>
   <field>valence</field>
   <field type="string">pseudopotential</field>
   <set>
    <rc><c>   1</c><c>Ag</c><c>    107.86800000</c><c>     11.00000000</c><c>  PAW_PBE Ag 02Apr2005                  </c></rc>
   </set>
  </array>
 </atominfo>
 <structure name="initialpos" >
  <crystal>
   <varray name="basis" >
    <v>       2.94990807       0.00000000       0.00000000 </v>
    <v>       1.47495403       2.55469533       0.00000000 </v>
    <v>       1.47495403       0.85156511       2.40858985 </v>
   </varray>
   <i name="volume">     18.15141340 </i>
   <varray name="rec_basis" >
    <v>       0.33899361      -0.19571805      -0.13839356 </v>
    <v>       0.00000000       0.39143611      -0.13839356 </v>
    <v>       0.00000000       0.00000000       0.41518069 </v>
   </varray>
  </crystal>
  <varray name="positions" >
   <v>       0.00000000       0.00000000       0.00000000 </v>
  </varray>
 </structure>
 <calculation>
  <scstep>
   <time name="dav">    0.92    0.92</time>
   <time name="total">    0.97    0.99</time>
   <energy>
    <i name="alphaZ">     46.86015630 </i>
    <i name="ewald">   -957.44589910 </i>
    <i name="hartreedc">   -212.21334722 </i>
    <i name="XCdc">    -10.57686066 </i>
    <i name="pawpsdc">   1003.46214933 </i>
    <i name="pawaedc">   -957.34927423 </i>
    <i name="eentropy">     -0.00239015 </i>
    <i name="bandstr">     78.18265636 </i>
    <i name="atom">   1037.24027811 </i>
    <i name="e_fr_energy">     28.15746874 </i>
    <i name="e_wo_entrp">     28.15985889 </i>
    <i name="e_0_energy">     28.15826546 </i>
   </energy>
  </scstep>
  <scstep>
   <time name="dav">    0.81    0.81</time>
   <time name="total">    0.82    0.83</time>
   <energy>
    <i name="e_fr_energy">     -2.76065954 </i>
    <i name="e_wo_entrp">     -2.76140571 </i>
    <i name="e_0_energy">     -2.76090826 </i>
   </energy>
  </scstep>
  <scstep>
   <time name="dav">    0.90    0.91</time>
   <time name="total">    0.91    0.96</time>
   <energy>
    <i name="e_fr_energy">     -2.95284376 </i>
    <i name="e_wo_entrp">     -2.95360801 </i>
    <i name="e_0_energy">     -2.95309851 </i>
   </energy>
  </scstep>
  <scstep>
   <time name="dav">    0.97    1.01</time>
   <time name="total">    0.98    1.06</time>
   <energy>
    <i name="e_fr_energy">     -2.95325288 </i>
    <i name="e_wo_entrp">     -2.95401720 </i>
    <i name="e_0_energy">     -2.95350766 </i>
   </energy>
  </scstep>
  <scstep>
   <time name="dav">    0.83    0.83</time>
   <time name="total">    0.90    0.93</time>
   <energy>
    <i name="e_fr_energy">     -2.95325538 </i>
    <i name="e_wo_entrp">     -2.95401969 </i>
    <i name="e_0_energy">     -2.95351015 </i>
   </energy>
  </scstep>
  <scstep>
   <time name="dav">    0.85    0.85</time>
   <time name="total">    0.96    0.99</time>
   <energy>
    <i name="e_fr_energy">     -2.72596205 </i>
    <i name="e_wo_entrp">     -2.72538203 </i>
    <i name="e_0_energy">     -2.72576871 </i>
   </energy>
  </scstep>
  <scstep>
   <time name="dav">    0.93    0.94</time>
   <time name="total">    1.05    1.09</time>
   <energy>
    <i name="e_fr_energy">     -2.71995147 </i>
    <i name="e_wo_entrp">     -2.71940959 </i>
    <i name="e_0_energy">     -2.71977085 </i>
   </energy>
  </scstep>
  <scstep>
   <time name="dav">    0.85    0.85</time>
   <time name="total">    0.96    0.98</time>
   <energy>
    <i name="e_fr_energy">     -2.71748440 </i>
    <i name="e_wo_entrp">     -2.71695277 </i>
    <i name="e_0_energy">     -2.71730719 </i>
   </energy>
  </scstep>
  <scstep>
   <time name="dav">    0.59    0.59</time>
   <time name="total">    0.64    0.65</time>
   <energy>
    <i name="alphaZ">     46.86015630 </i>
    <i name="ewald">   -957.44589910 </i>
    <i name="hartreedc">   -200.03327640 </i>
    <i name="XCdc">    -11.02593928 </i>
    <i name="pawpsdc">   1095.94531793 </i>
    <i name="pawaedc">  -1052.16078345 </i>
    <i name="eentropy">     -0.00053208 </i>
    <i name="bandstr">     37.90318338 </i>
    <i name="atom">   1037.24027811 </i>
    <i name="e_fr_energy">     -2.71749458 </i>
    <i name="e_wo_entrp">     -2.71696250 </i>
    <i name="e_0_energy">     -2.71731722 </i>
   </energy>
  </scstep>
  <structure>
   <crystal>
    <varray name="basis" >
     <v>       2.94990807       0.00000000       0.00000000 </v>
     <v>       1.47495403       2.55469533       0.00000000 </v>
     <v>       1.47495403       0.85156511       2.40858985 </v>
    </varray>
    <i name="volume">     18.15141340 </i>
    <varray name="rec_basis" >
     <v>       0.33899361      -0.19571805      -0.13839356 </v>
     <v>       0.00000000       0.39143611      -0.13839356 </v>
     <v>       0.00000000       0.00000000       0.41518069 </v>
    </varray>
   </crystal>
   <varray name="positions" >
    <v>       0.00000000       0.00000000       0.00000000 </v>
   </varray>
  </structure>
  <varray name="forces" >
   <v>       0.00000000       0.00000000       0.00000000 </v>
  </varray>
  <varray name="stress" >
   <v>     -24.84534012       0.00000000       0.00000000 </v>
   <v>       0.00000000     -24.84534012       0.00000000 </v>
   <v>       0.00000000       0.00000000     -24.84534012 </v>
  </varray>
  <energy>
   <i name="e_fr_energy">     -2.71749458 </i>
   <i name="e_wo_entrp">     -2.71731722 </i>
   <i name="e_0_energy">     -0.00053208 </i>
  </energy>
  <time name="totalsc">    8.87    9.26</time>
  <eigenvalues>
   <array>
    <dimension dim="1">band</dimension>
    <dimension dim="2">kpoint</dimension>
    <dimension dim="3">spin</dimension>
    <field>eigene</field>
    <field>occ</field>
    <set>
     <set comment="spin 1">
      <set comment="kpoint 1">
       <r>    0.3870    1.0000 </r>
       <r>    2.9818    1.0000 </r>
       <r>    3.0370    1.0000 </r>
       <r>    3.0370    1.0000 </r>
       <r>    3.9213    1.0000 </r>
       <r>    3.9213    1.0000 </r>
       <r>   23.4607    0.0000 </r>
       <r>   25.6557    0.0000 </r>
       <r>   26.6977    0.0000 </r>
      </set>
      <set comment="kpoint 2">
       <r>    0.9642    1.0000 </r>
       <r>    2.8642    1.0000 </r>
       <r>    3.1671    1.0000 </r>
       <r>    3.1919    1.0000 </r>
       <r>    3.8051    1.0000 </r>
       <r>    4.0012    1.0000 </r>
       <r>   22.2072    0.0000 </r>
       <r>   23.7078    0.0000 </r>
       <r>   25.9198    0.0000 </r>
      </set>
      <set comment="kpoint 3">
       <r>    1.7327    1.0000 </r>
       <r>    3.1137    1.0000 </r>
       <r>    3.2174    1.0000 </r>
       <r>    3.3734    1.0000 </r>
       <r>    3.9617    1.0000 </r>
       <r>    4.4193    1.0000 </r>
       <r>   17.5534    0.0000 </r>
       <r>   23.1478    0.0000 </r>
       <r>   25.2950    0.0000 </r>
      </set>
      <set comment="kpoint 4">
       <r>    1.6996    1.0000 </r>
       <r>    3.0154    1.0000 </r>
       <r>    3.0808    1.0000 </r>
       <r>    4.3112    1.0000 </r>
       <r>    4.4114    1.0000 </r>
       <r>    6.0605    1.0000 </r>
       <r>   13.1027    0.0000 </r>
       <r>   22.6342    0.0000 </r>
       <r>   24.1718    0.0000 </r>
      </set>
      <set comment="kpoint 5">
       <r>    1.6410    1.0000 </r>
       <r>    2.9517    1.0000 </r>
       <r>    3.0435    1.0000 </r>
       <r>    4.4265    1.0000 </r>
       <r>    4.6492    1.0000 </r>
       <r>    7.5495    0.5544 </r>
       <r>   11.0147    0.0000 </r>
       <r>   22.5770    0.0000 </r>
       <r>   24.2093    0.0000 </r>
      </set>
      <set comment="kpoint 6">
       <r>    1.7363    1.0000 </r>
       <r>    3.0470    1.0000 </r>
       <r>    3.1445    1.0000 </r>
       <r>    3.9493    1.0000 </r>
       <r>    4.4800    1.0000 </r>
       <r>    5.2387    1.0000 </r>
       <r>   14.4983    0.0000 </r>
       <r>   23.1262    0.0000 </r>
       <r>   24.3295    0.0000 </r>
      </set>
      <set comment="kpoint 7">
       <r>    1.5681    1.0000 </r>
       <r>    2.9518    1.0000 </r>
       <r>    3.2337    1.0000 </r>
       <r>    3.2469    1.0000 </r>
       <r>    3.9634    1.0000 </r>
       <r>    4.1232    1.0000 </r>
       <r>   19.1364    0.0000 </r>
       <r>   23.9122    0.0000 </r>
       <r>   25.0124    0.0000 </r>
      </set>
      <set comment="kpoint 8">
       <r>    0.6873    1.0000 </r>
       <r>    2.8848    1.0000 </r>
       <r>    3.1323    1.0000 </r>
       <r>    3.1343    1.0000 </r>
       <r>    3.8209    1.0000 </r>
       <r>    3.9769    1.0000 </r>
       <r>   23.2676    0.0000 </r>
       <r>   24.5585    0.0000 </r>
       <r>   25.7960    0.0000 </r>
      </set>
      <set comment="kpoint 9">
       <r>    1.2375    1.0000 </r>
       <r>    2.6926    1.0000 </r>
       <r>    3.3085    1.0000 </r>
       <r>    3.3226    1.0000 </r>
       <r>    3.7133    1.0000 </r>
       <r>    4.0813    1.0000 </r>
       <r>   22.4844    0.0000 </r>
       <r>   23.9623    0.0000 </r>
       <r>   24.2893    0.0000 </r>
      </set>
      <set comment="kpoint 10">
       <r>    1.9911    1.0000 </r>
       <r>    2.5524    1.0000 </r>
       <r>    3.2065    1.0000 </r>
       <r>    3.5548    1.0000 </r>
       <r>    4.0078    1.0000 </r>
       <r>    4.5165    1.0000 </r>
       <r>   19.5665    0.0000 </r>
       <r>   21.5211    0.0000 </r>
       <r>   24.3057    0.0000 </r>
      </set>
      <set comment="kpoint 11">
       <r>    2.0285    1.0000 </r>
       <r>    2.8913    1.0000 </r>
       <r>    3.2018    1.0000 </r>
       <r>    3.4958    1.0000 </r>
       <r>    4.4895    1.0000 </r>
       <r>    6.2369    1.0000 </r>
       <r>   14.9207    0.0000 </r>
       <r>   21.0854    0.0000 </r>
       <r>   22.2693    0.0000 </r>
      </set>
      <set comment="kpoint 12">
       <r>    1.9570    1.0000 </r>
       <r>    2.7605    1.0000 </r>
       <r>    3.3345    1.0000 </r>
       <r>    3.7304    1.0000 </r>
       <r>    4.6151    1.0000 </r>
       <r>    8.8234    0.0000 </r>
       <r>   11.2238    0.0000 </r>
       <r>   20.6731    0.0000 </r>
       <r>   21.5338    0.0000 </r>
      </set>
      <set comment="kpoint 13">
       <r>    2.0509    1.0000 </r>
       <r>    2.8365    1.0000 </r>
       <r>    3.3292    1.0000 </r>
       <r>    3.5892    1.0000 </r>
       <r>    4.3631    1.0000 </r>
       <r>    7.1560    1.0072 </r>
       <r>   13.5445    0.0000 </r>
       <r>   19.9316    0.0000 </r>
       <r>   22.8079    0.0000 </r>
      </set>
      <set comment="kpoint 14">
       <r>    2.1883    1.0000 </r>
       <r>    2.7300    1.0000 </r>
       <r>    3.1115    1.0000 </r>
       <r>    3.5345    1.0000 </r>
       <r>    3.8577    1.0000 </r>
       <r>    5.1305    1.0000 </r>
       <r>   18.0129    0.0000 </r>
       <r>   20.0879    0.0000 </r>
       <r>   24.6737    0.0000 </r>
      </set>
      <set comment="kpoint 15">
       <r>    1.4614    1.0000 </r>
       <r>    2.7369    1.0000 </r>
       <r>    3.2607    1.0000 </r>
       <r>    3.3197    1.0000 </r>
       <r>    3.7662    1.0000 </r>
       <r>    4.1752    1.0000 </r>
       <r>   20.8768    0.0000 </r>
       <r>   22.7025    0.0000 </r>
       <r>   25.5605    0.0000 </r>
      </set>
      <set comment="kpoint 16">
       <r>    2.0487    1.0000 </r>
       <r>    2.2009    1.0000 </r>
       <r>    3.7490    1.0000 </r>
       <r>    3.9017    1.0000 </r>
       <r>    4.3773    1.0000 </r>
       <r>    4.6873    1.0000 </r>
       <r>   19.9429    0.0000 </r>
       <r>   21.0001    0.0000 </r>
       <r>   21.6464    0.0000 </r>
      </set>
      <set comment="kpoint 17">
       <r>    2.0099    1.0000 </r>
       <r>    2.1477    1.0000 </r>
       <r>    3.6672    1.0000 </r>
       <r>    4.1659    1.0000 </r>
       <r>    4.5279    1.0000 </r>
       <r>    6.6150    1.0000 </r>
       <r>   17.2452    0.0000 </r>
       <r>   19.0019    0.0000 </r>
       <r>   19.2475    0.0000 </r>
      </set>
      <set comment="kpoint 18">
       <r>    2.0389    1.0000 </r>
       <r>    2.4384    1.0000 </r>
       <r>    3.4240    1.0000 </r>
       <r>    3.9425    1.0000 </r>
       <r>    4.6619    1.0000 </r>
       <r>    9.5645    0.0000 </r>
       <r>   13.1529    0.0000 </r>
       <r>   17.0767    0.0000 </r>
       <r>   19.4900    0.0000 </r>
      </set>
      <set comment="kpoint 19">
       <r>    2.3047    1.0000 </r>
       <r>    2.7387    1.0000 </r>
       <r>    3.0742    1.0000 </r>
       <r>    3.7877    1.0000 </r>
       <r>    4.3803    1.0000 </r>
       <r>    9.6969    0.0000 </r>
       <r>   13.3187    0.0000 </r>
       <r>   15.8118    0.0000 </r>
       <r>   20.9042    0.0000 </r>
      </set>
      <set comment="kpoint 20">
       <r>    2.4248    1.0000 </r>
       <r>    2.7546    1.0000 </r>
       <r>    3.0292    1.0000 </r>
       <r>    3.6699    1.0000 </r>
       <r>    4.0823    1.0000 </r>
       <r>    7.0653    1.0012 </r>
       <r>   15.4741    0.0000 </r>
       <r>   17.6429    0.0000 </r>
       <r>   22.7863    0.0000 </r>
      </set>
      <set comment="kpoint 21">
       <r>    1.9020    1.0000 </r>
       <r>    3.0549    1.0000 </r>
       <r>    3.2511    1.0000 </r>
       <r>    3.3959    1.0000 </r>
       <r>    4.2174    1.0000 </r>
       <r>    5.0867    1.0000 </r>
       <r>   16.1460    0.0000 </r>
       <r>   22.1249    0.0000 </r>
       <r>   24.2744    0.0000 </r>
      </set>
      <set comment="kpoint 22">
       <r>    1.7150    1.0000 </r>
       <r>    1.8029    1.0000 </r>
       <r>    4.4528    1.0000 </r>
       <r>    4.4994    1.0000 </r>
       <r>    4.6867    1.0000 </r>
       <r>    7.6520    0.1599 </r>
       <r>   16.2203    0.0000 </r>
       <r>   17.8836    0.0000 </r>
       <r>   18.6615    0.0000 </r>
      </set>
      <set comment="kpoint 23">
       <r>    1.7358    1.0000 </r>
       <r>    1.8655    1.0000 </r>
       <r>    4.2401    1.0000 </r>
       <r>    4.4445    1.0000 </r>
       <r>    4.7876    1.0000 </r>
       <r>    9.8368    0.0000 </r>
       <r>   14.2816    0.0000 </r>
       <r>   16.1423    0.0000 </r>
       <r>   17.8568    0.0000 </r>
      </set>
      <set comment="kpoint 24">
       <r>    1.9883    1.0000 </r>
       <r>    2.3458    1.0000 </r>
       <r>    3.5510    1.0000 </r>
       <r>    4.0900    1.0000 </r>
       <r>    4.6380    1.0000 </r>
       <r>   11.3874    0.0000 </r>
       <r>   12.7464    0.0000 </r>
       <r>   14.8442    0.0000 </r>
       <r>   19.1365    0.0000 </r>
      </set>
      <set comment="kpoint 25">
       <r>    2.1769    1.0000 </r>
       <r>    2.6599    1.0000 </r>
       <r>    3.3936    1.0000 </r>
       <r>    3.5712    1.0000 </r>
       <r>    4.5235    1.0000 </r>
       <r>    9.7469    0.0000 </r>
       <r>   11.5513    0.0000 </r>
       <r>   18.1946    0.0000 </r>
       <r>   21.1094    0.0000 </r>
      </set>
      <set comment="kpoint 26">
       <r>    1.7807    1.0000 </r>
       <r>    2.9028    1.0000 </r>
       <r>    3.1583    1.0000 </r>
       <r>    4.0573    1.0000 </r>
       <r>    4.5800    1.0000 </r>
       <r>    7.3405    1.0331 </r>
       <r>   11.9802    0.0000 </r>
       <r>   22.0053    0.0000 </r>
       <r>   23.0334    0.0000 </r>
      </set>
      <set comment="kpoint 27">
       <r>    1.5994    1.0000 </r>
       <r>    1.7127    1.0000 </r>
       <r>    4.5652    1.0000 </r>
       <r>    4.6890    1.0000 </r>
       <r>    4.7986    1.0000 </r>
       <r>    9.1655    0.0000 </r>
       <r>   14.2203    0.0000 </r>
       <r>   17.3857    0.0000 </r>
       <r>   18.1381    0.0000 </r>
      </set>
      <set comment="kpoint 28">
       <r>    1.8441    1.0000 </r>
       <r>    1.9590    1.0000 </r>
       <r>    3.9998    1.0000 </r>
       <r>    4.3944    1.0000 </r>
       <r>    4.6766    1.0000 </r>
       <r>    8.2630    0.0000 </r>
       <r>   16.1072    0.0000 </r>
       <r>   16.8086    0.0000 </r>
       <r>   18.3148    0.0000 </r>
      </set>
      <set comment="kpoint 29">
       <r>    2.0725    1.0000 </r>
       <r>    2.6363    1.0000 </r>
       <r>    3.2701    1.0000 </r>
       <r>    3.7174    1.0000 </r>
       <r>    4.6296    1.0000 </r>
       <r>    7.7670   -0.0273 </r>
       <r>   13.9037    0.0000 </r>
       <r>   19.6671    0.0000 </r>
       <r>   20.1664    0.0000 </r>
      </set>
      <set comment="kpoint 30">
       <r>    1.9034    1.0000 </r>
       <r>    1.9754    1.0000 </r>
       <r>    4.1658    1.0000 </r>
       <r>    4.2145    1.0000 </r>
       <r>    4.5353    1.0000 </r>
       <r>    6.0045    1.0000 </r>
       <r>   18.6572    0.0000 </r>
       <r>   18.9842    0.0000 </r>
       <r>   19.6478    0.0000 </r>
      </set>
      <set comment="kpoint 31">
       <r>    2.1515    1.0000 </r>
       <r>    2.3696    1.0000 </r>
       <r>    3.3252    1.0000 </r>
       <r>    3.8521    1.0000 </r>
       <r>    4.3211    1.0000 </r>
       <r>    5.2975    1.0000 </r>
       <r>   18.3390    0.0000 </r>
       <r>   20.2712    0.0000 </r>
       <r>   21.8233    0.0000 </r>
      </set>
      <set comment="kpoint 32">
       <r>    1.8391    1.0000 </r>
       <r>    2.4503    1.0000 </r>
       <r>    3.4322    1.0000 </r>
       <r>    3.5876    1.0000 </r>
       <r>    3.9349    1.0000 </r>
       <r>    4.2205    1.0000 </r>
       <r>   21.2515    0.0000 </r>
       <r>   22.6004    0.0000 </r>
       <r>   23.5936    0.0000 </r>
      </set>
      <set comment="kpoint 33">
       <r>    1.1907    1.0000 </r>
       <r>    2.9456    1.0000 </r>
       <r>    3.1830    1.0000 </r>
       <r>    3.1830    1.0000 </r>
       <r>    3.9270    1.0000 </r>
       <r>    3.9270    1.0000 </r>
       <r>   20.6333    0.0000 </r>
       <r>   24.2217    0.0000 </r>
       <r>   26.6929    0.0000 </r>
      </set>
      <set comment="kpoint 34">
       <r>    1.8339    1.0000 </r>
       <r>    2.7600    1.0000 </r>
       <r>    3.2561    1.0000 </r>
       <r>    3.3753    1.0000 </r>
       <r>    3.6977    1.0000 </r>
       <r>    4.5287    1.0000 </r>
       <r>   19.3710    0.0000 </r>
       <r>   21.3591    0.0000 </r>
       <r>   26.0944    0.0000 </r>
      </set>
      <set comment="kpoint 35">
       <r>    2.3273    1.0000 </r>
       <r>    2.8028    1.0000 </r>
       <r>    3.1983    1.0000 </r>
       <r>    3.4895    1.0000 </r>
       <r>    3.8514    1.0000 </r>
       <r>    5.9535    1.0000 </r>
       <r>   16.6475    0.0000 </r>
       <r>   18.7732    0.0000 </r>
       <r>   24.7576    0.0000 </r>
      </set>
      <set comment="kpoint 36">
       <r>    2.0960    1.0000 </r>
       <r>    2.7712    1.0000 </r>
       <r>    3.3972    1.0000 </r>
       <r>    3.5958    1.0000 </r>
       <r>    4.3899    1.0000 </r>
       <r>    8.3353    0.0000 </r>
       <r>   12.4052    0.0000 </r>
       <r>   18.9412    0.0000 </r>
       <r>   23.4869    0.0000 </r>
      </set>
      <set comment="kpoint 37">
       <r>    1.9887    1.0000 </r>
       <r>    2.7494    1.0000 </r>
       <r>    3.4503    1.0000 </r>
       <r>    3.5023    1.0000 </r>
       <r>    4.6760    1.0000 </r>
       <r>    8.2744    0.0000 </r>
       <r>   12.3138    0.0000 </r>
       <r>   20.0609    0.0000 </r>
       <r>   21.9658    0.0000 </r>
      </set>
      <set comment="kpoint 38">
       <r>    2.0497    1.0000 </r>
       <r>    2.6739    1.0000 </r>
       <r>    3.2368    1.0000 </r>
       <r>    3.5824    1.0000 </r>
       <r>    4.5372    1.0000 </r>
       <r>    5.5857    1.0000 </r>
       <r>   16.5297    0.0000 </r>
       <r>   21.7343    0.0000 </r>
       <r>   21.9146    0.0000 </r>
      </set>
      <set comment="kpoint 39">
       <r>    1.9209    1.0000 </r>
       <r>    2.8883    1.0000 </r>
       <r>    3.1425    1.0000 </r>
       <r>    3.3807    1.0000 </r>
       <r>    4.3416    1.0000 </r>
       <r>    4.5195    1.0000 </r>
       <r>   17.7631    0.0000 </r>
       <r>   23.2826    0.0000 </r>
       <r>   23.4345    0.0000 </r>
      </set>
      <set comment="kpoint 40">
       <r>    2.3070    1.0000 </r>
       <r>    2.6846    1.0000 </r>
       <r>    2.9530    1.0000 </r>
       <r>    3.7980    1.0000 </r>
       <r>    4.1655    1.0000 </r>
       <r>    6.1017    1.0000 </r>
       <r>   16.8148    0.0000 </r>
       <r>   18.9232    0.0000 </r>
       <r>   22.1849    0.0000 </r>
      </set>
      <set comment="kpoint 41">
       <r>    2.4954    1.0000 </r>
       <r>    2.5822    1.0000 </r>
       <r>    2.9089    1.0000 </r>
       <r>    3.8755    1.0000 </r>
       <r>    4.3635    1.0000 </r>
       <r>    8.5095    0.0000 </r>
       <r>   14.5000    0.0000 </r>
       <r>   16.7450    0.0000 </r>
       <r>   20.1442    0.0000 </r>
      </set>
      <set comment="kpoint 42">
       <r>    2.2922    1.0000 </r>
       <r>    2.5380    1.0000 </r>
       <r>    3.1554    1.0000 </r>
       <r>    3.8020    1.0000 </r>
       <r>    4.6024    1.0000 </r>
       <r>   10.5001    0.0000 </r>
       <r>   11.8901    0.0000 </r>
       <r>   17.6375    0.0000 </r>
       <r>   18.6774    0.0000 </r>
      </set>
      <set comment="kpoint 43">
       <r>    2.2199    1.0000 </r>
       <r>    2.4329    1.0000 </r>
       <r>    3.1582    1.0000 </r>
       <r>    4.0638    1.0000 </r>
       <r>    4.4222    1.0000 </r>
       <r>    7.4871    0.7950 </r>
       <r>   15.8031    0.0000 </r>
       <r>   17.9174    0.0000 </r>
       <r>   19.5313    0.0000 </r>
      </set>
      <set comment="kpoint 44">
       <r>    1.9900    1.0000 </r>
       <r>    2.3879    1.0000 </r>
       <r>    3.5406    1.0000 </r>
       <r>    3.8325    1.0000 </r>
       <r>    4.6717    1.0000 </r>
       <r>    7.0388    1.0007 </r>
       <r>   15.4750    0.0000 </r>
       <r>   19.2932    0.0000 </r>
       <r>   20.4793    0.0000 </r>
      </set>
      <set comment="kpoint 45">
       <r>    2.0838    1.0000 </r>
       <r>    2.2331    1.0000 </r>
       <r>    3.4295    1.0000 </r>
       <r>    4.2019    1.0000 </r>
       <r>    4.6373    1.0000 </r>
       <r>    9.1846    0.0000 </r>
       <r>   15.0230    0.0000 </r>
       <r>   16.7089    0.0000 </r>
       <r>   17.4721    0.0000 </r>
      </set>
      <set comment="kpoint 46">
       <r>    2.2182    1.0000 </r>
       <r>    2.5301    1.0000 </r>
       <r>    3.0399    1.0000 </r>
       <r>    3.9818    1.0000 </r>
       <r>    4.7830    1.0000 </r>
       <r>   12.1168    0.0000 </r>
       <r>   13.3605    0.0000 </r>
       <r>   14.9290    0.0000 </r>
       <r>   16.1789    0.0000 </r>
      </set>
      <set comment="kpoint 47">
       <r>    2.3472    1.0000 </r>
       <r>    2.5371    1.0000 </r>
       <r>    2.9566    1.0000 </r>
       <r>    3.9734    1.0000 </r>
       <r>    4.6191    1.0000 </r>
       <r>   10.2511    0.0000 </r>
       <r>   13.7701    0.0000 </r>
       <r>   16.0646    0.0000 </r>
       <r>   17.6321    0.0000 </r>
      </set>
      <set comment="kpoint 48">
       <r>    1.8026    1.0000 </r>
       <r>    2.0611    1.0000 </r>
       <r>    4.0208    1.0000 </r>
       <r>    4.2836    1.0000 </r>
       <r>    4.6968    1.0000 </r>
       <r>   10.4224    0.0000 </r>
       <r>   14.0369    0.0000 </r>
       <r>   14.8054    0.0000 </r>
       <r>   19.1362    0.0000 </r>
      </set>
      <set comment="kpoint 49">
       <r>    1.9784    1.0000 </r>
       <r>    2.1486    1.0000 </r>
       <r>    3.6350    1.0000 </r>
       <r>    4.2015    1.0000 </r>
       <r>    4.7840    1.0000 </r>
       <r>   10.8953    0.0000 </r>
       <r>   14.2788    0.0000 </r>
       <r>   15.0144    0.0000 </r>
       <r>   16.9707    0.0000 </r>
      </set>
      <set comment="kpoint 50">
       <r>    1.8811    1.0000 </r>
       <r>    2.1694    1.0000 </r>
       <r>    3.8399    1.0000 </r>
       <r>    4.0897    1.0000 </r>
       <r>    4.7206    1.0000 </r>
       <r>    8.7582    0.0000 </r>
       <r>   14.6634    0.0000 </r>
       <r>   16.7212    0.0000 </r>
       <r>   19.5944    0.0000 </r>
      </set>
      <set comment="kpoint 51">
       <r>    1.6902    1.0000 </r>
       <r>    3.1321    1.0000 </r>
       <r>    3.1321    1.0000 </r>
       <r>    4.1010    1.0000 </r>
       <r>    4.2415    1.0000 </r>
       <r>    4.2415    1.0000 </r>
       <r>   15.9217    0.0000 </r>
       <r>   23.5313    0.0000 </r>
       <r>   25.9526    0.0000 </r>
      </set>
      <set comment="kpoint 52">
       <r>    1.9480    1.0000 </r>
       <r>    2.9762    1.0000 </r>
       <r>    3.2518    1.0000 </r>
       <r>    3.6851    1.0000 </r>
       <r>    4.1449    1.0000 </r>
       <r>    5.9509    1.0000 </r>
       <r>   14.7387    0.0000 </r>
       <r>   20.9462    0.0000 </r>
       <r>   24.2888    0.0000 </r>
      </set>
      <set comment="kpoint 53">
       <r>    2.3723    1.0000 </r>
       <r>    2.7889    1.0000 </r>
       <r>    3.1484    1.0000 </r>
       <r>    3.6268    1.0000 </r>
       <r>    4.1716    1.0000 </r>
       <r>    8.2457    0.0000 </r>
       <r>   14.3112    0.0000 </r>
       <r>   16.5851    0.0000 </r>
       <r>   23.3243    0.0000 </r>
      </set>
      <set comment="kpoint 54">
       <r>    2.0951    1.0000 </r>
       <r>    2.6064    1.0000 </r>
       <r>    3.3399    1.0000 </r>
       <r>    3.9158    1.0000 </r>
       <r>    4.4756    1.0000 </r>
       <r>   11.0927    0.0000 </r>
       <r>   12.2630    0.0000 </r>
       <r>   15.1860    0.0000 </r>
       <r>   20.9424    0.0000 </r>
      </set>
      <set comment="kpoint 55">
       <r>    1.8512    1.0000 </r>
       <r>    2.9100    1.0000 </r>
       <r>    3.2553    1.0000 </r>
       <r>    3.6954    1.0000 </r>
       <r>    4.6339    1.0000 </r>
       <r>    6.6255    1.0000 </r>
       <r>   13.2888    0.0000 </r>
       <r>   22.2976    0.0000 </r>
       <r>   22.9876    0.0000 </r>
      </set>
      <set comment="kpoint 56">
       <r>    2.1911    1.0000 </r>
       <r>    2.6520    1.0000 </r>
       <r>    3.2933    1.0000 </r>
       <r>    3.6232    1.0000 </r>
       <r>    4.5334    1.0000 </r>
       <r>    8.6953    0.0000 </r>
       <r>   12.5771    0.0000 </r>
       <r>   19.1144    0.0000 </r>
       <r>   20.3135    0.0000 </r>
      </set>
      <set comment="kpoint 57">
       <r>    2.2605    1.0000 </r>
       <r>    2.5942    1.0000 </r>
       <r>    3.0537    1.0000 </r>
       <r>    3.9225    1.0000 </r>
       <r>    4.6177    1.0000 </r>
       <r>   11.4264    0.0000 </r>
       <r>   12.5509    0.0000 </r>
       <r>   15.3144    0.0000 </r>
       <r>   18.3729    0.0000 </r>
      </set>
      <set comment="kpoint 58">
       <r>    2.0790    1.0000 </r>
       <r>    2.6357    1.0000 </r>
       <r>    3.3880    1.0000 </r>
       <r>    3.6955    1.0000 </r>
       <r>    4.6046    1.0000 </r>
       <r>   10.1217    0.0000 </r>
       <r>   11.6435    0.0000 </r>
       <r>   17.5139    0.0000 </r>
       <r>   21.2828    0.0000 </r>
      </set>
      <set comment="kpoint 59">
       <r>    1.5978    1.0000 </r>
       <r>    3.0083    1.0000 </r>
       <r>    3.0083    1.0000 </r>
       <r>    4.5913    1.0000 </r>
       <r>    4.5913    1.0000 </r>
       <r>    6.6029    1.0000 </r>
       <r>   11.8151    0.0000 </r>
       <r>   22.7999    0.0000 </r>
       <r>   24.9698    0.0000 </r>
      </set>
      <set comment="kpoint 60">
       <r>    1.8170    1.0000 </r>
       <r>    2.8583    1.0000 </r>
       <r>    3.1812    1.0000 </r>
       <r>    4.0514    1.0000 </r>
       <r>    4.5746    1.0000 </r>
       <r>    8.2595    0.0000 </r>
       <r>   11.1207    0.0000 </r>
       <r>   21.2518    0.0000 </r>
       <r>   23.5208    0.0000 </r>
      </set>
     </set>
    </set>
   </array>
  </eigenvalues>
  <separator name="orbital magnetization" >
   <v name="MAGDIPOLOUT">      0.00000000      0.00000000      0.00000000</v>
  </separator>
  <dos>
   <i name="efermi">      7.56243477 </i>
   <total>
    <array>
     <dimension dim="1">gridpoints</dimension>
     <dimension dim="2">spin</dimension>
     <field>energy</field>
     <field>total</field>
     <field>integrated</field>
     <set>
      <set comment="spin 1">
       <r>    -1.6130     0.0000     0.0000 </r>
       <r>    -1.5119     0.0000     0.0000 </r>
       <r>    -1.4109     0.0000     0.0000 </r>
       <r>    -1.3098     0.0000     0.0000 </r>
       <r>    -1.2088     0.0000     0.0000 </r>
       <r>    -1.1078     0.0000     0.0000 </r>
       <r>    -1.0067     0.0000     0.0000 </r>
       <r>    -0.9057     0.0000     0.0000 </r>
       <r>    -0.8047     0.0000     0.0000 </r>
       <r>    -0.7036     0.0000     0.0000 </r>
       <r>    -0.6026     0.0000     0.0000 </r>
       <r>    -0.5016     0.0000     0.0000 </r>
       <r>    -0.4005     0.0000     0.0000 </r>
       <r>    -0.2995     0.0000     0.0000 </r>
       <r>    -0.1985     0.0000     0.0000 </r>
       <r>    -0.0974    -0.0001     0.0000 </r>
       <r>     0.0036    -0.0007    -0.0001 </r>
       <r>     0.1046    -0.0017    -0.0002 </r>
       <r>     0.2057     0.0011    -0.0001 </r>
       <r>     0.3067     0.0134     0.0012 </r>
       <r>     0.4078     0.0259     0.0038 </r>
       <r>     0.5088     0.0305     0.0069 </r>
       <r>     0.6098     0.0537     0.0123 </r>
       <r>     0.7109     0.0874     0.0212 </r>
       <r>     0.8119     0.0866     0.0299 </r>
       <r>     0.9129     0.0807     0.0381 </r>
       <r>     1.0140     0.0905     0.0472 </r>
       <r>     1.1150     0.0933     0.0567 </r>
       <r>     1.2160     0.1041     0.0672 </r>
       <r>     1.3171     0.1160     0.0789 </r>
       <r>     1.4181     0.1498     0.0940 </r>
       <r>     1.5191     0.2770     0.1220 </r>
       <r>     1.6202     0.5924     0.1819 </r>
       <r>     1.7212     1.1976     0.3029 </r>
       <r>     1.8223     2.0186     0.5068 </r>
       <r>     1.9233     2.9018     0.8000 </r>
       <r>     2.0243     3.6197     1.1657 </r>
       <r>     2.1254     3.8053     1.5502 </r>
       <r>     2.2264     3.4723     1.9010 </r>
       <r>     2.3274     2.9592     2.2000 </r>
       <r>     2.4285     2.5268     2.4553 </r>
       <r>     2.5295     2.4110     2.6989 </r>
       <r>     2.6305     2.6451     2.9661 </r>
       <r>     2.7316     2.8752     3.2566 </r>
       <r>     2.8326     2.8481     3.5444 </r>
       <r>     2.9336     2.8488     3.8322 </r>
       <r>     3.0347     3.2270     4.1583 </r>
       <r>     3.1357     3.8920     4.5515 </r>
       <r>     3.2367     4.3722     4.9932 </r>
       <r>     3.3378     4.2113     5.4187 </r>
       <r>     3.4388     3.5386     5.7763 </r>
       <r>     3.5399     3.0319     6.0826 </r>
       <r>     3.6409     3.0068     6.3864 </r>
       <r>     3.7419     3.1442     6.7041 </r>
       <r>     3.8430     3.2798     7.0354 </r>
       <r>     3.9440     3.4471     7.3837 </r>
       <r>     4.0450     3.4919     7.7365 </r>
       <r>     4.1461     3.2833     8.0682 </r>
       <r>     4.2471     2.9117     8.3624 </r>
       <r>     4.3481     2.7664     8.6419 </r>
       <r>     4.4492     3.2691     8.9722 </r>
       <r>     4.5502     4.1307     9.3896 </r>
       <r>     4.6512     4.3557     9.8297 </r>
       <r>     4.7523     3.2598    10.1590 </r>
       <r>     4.8533     1.5147    10.3121 </r>
       <r>     4.9544     0.3585    10.3483 </r>
       <r>     5.0554     0.1558    10.3640 </r>
       <r>     5.1564     0.3744    10.4019 </r>
       <r>     5.2575     0.4578    10.4481 </r>
       <r>     5.3585     0.3230    10.4808 </r>
       <r>     5.4595     0.1474    10.4957 </r>
       <r>     5.5606     0.0761    10.5033 </r>
       <r>     5.6616     0.0608    10.5095 </r>
       <r>     5.7626     0.0311    10.5126 </r>
       <r>     5.8637     0.0946    10.5222 </r>
       <r>     5.9647     0.3106    10.5536 </r>
       <r>     6.0657     0.5000    10.6041 </r>
       <r>     6.1668     0.4922    10.6538 </r>
       <r>     6.2678     0.3277    10.6869 </r>
       <r>     6.3688     0.1353    10.7006 </r>
       <r>     6.4699     0.0721    10.7079 </r>
       <r>     6.5709     0.2030    10.7284 </r>
       <r>     6.6720     0.3032    10.7590 </r>
       <r>     6.7730     0.1817    10.7774 </r>
       <r>     6.8740     0.0412    10.7815 </r>
       <r>     6.9751     0.1263    10.7943 </r>
       <r>     7.0761     0.3467    10.8293 </r>
       <r>     7.1771     0.4251    10.8723 </r>
       <r>     7.2782     0.3377    10.9064 </r>
       <r>     7.3792     0.2966    10.9364 </r>
       <r>     7.4802     0.3395    10.9707 </r>
       <r>     7.5813     0.3547    11.0065 </r>
       <r>     7.6823     0.3232    11.0392 </r>
       <r>     7.7833     0.2707    11.0665 </r>
       <r>     7.8844     0.1550    11.0822 </r>
       <r>     7.9854     0.0168    11.0839 </r>
       <r>     8.0865     0.0152    11.0854 </r>
       <r>     8.1875     0.2488    11.1105 </r>
       <r>     8.2885     0.5216    11.1632 </r>
       <r>     8.3896     0.5088    11.2146 </r>
       <r>     8.4906     0.3188    11.2469 </r>
       <r>     8.5916     0.2503    11.2721 </r>
       <r>     8.6927     0.3358    11.3061 </r>
       <r>     8.7937     0.4117    11.3477 </r>
       <r>     8.8947     0.3077    11.3788 </r>
       <r>     8.9958     0.1320    11.3921 </r>
       <r>     9.0968     0.1369    11.4059 </r>
       <r>     9.1978     0.2536    11.4316 </r>
       <r>     9.2989     0.2149    11.4533 </r>
       <r>     9.3999     0.0775    11.4611 </r>
       <r>     9.5009     0.0917    11.4704 </r>
       <r>     9.6020     0.2797    11.4986 </r>
       <r>     9.7030     0.4859    11.5477 </r>
       <r>     9.8041     0.5347    11.6018 </r>
       <r>     9.9051     0.3565    11.6378 </r>
       <r>    10.0061     0.1382    11.6517 </r>
       <r>    10.1072     0.1003    11.6619 </r>
       <r>    10.2082     0.1962    11.6817 </r>
       <r>    10.3092     0.2620    11.7082 </r>
       <r>    10.4103     0.2839    11.7369 </r>
       <r>    10.5113     0.2824    11.7654 </r>
       <r>    10.6123     0.1832    11.7839 </r>
       <r>    10.7134     0.0565    11.7896 </r>
       <r>    10.8144     0.0722    11.7969 </r>
       <r>    10.9154     0.2058    11.8177 </r>
       <r>    11.0165     0.3149    11.8495 </r>
       <r>    11.1175     0.3606    11.8859 </r>
       <r>    11.2186     0.3681    11.9231 </r>
       <r>    11.3196     0.3908    11.9626 </r>
       <r>    11.4206     0.4643    12.0095 </r>
       <r>    11.5217     0.4786    12.0579 </r>
       <r>    11.6227     0.3559    12.0938 </r>
       <r>    11.7237     0.2045    12.1145 </r>
       <r>    11.8248     0.1960    12.1343 </r>
       <r>    11.9258     0.3277    12.1674 </r>
       <r>    12.0268     0.4049    12.2083 </r>
       <r>    12.1279     0.3590    12.2446 </r>
       <r>    12.2289     0.2912    12.2740 </r>
       <r>    12.3299     0.2636    12.3006 </r>
       <r>    12.4310     0.2913    12.3301 </r>
       <r>    12.5320     0.3878    12.3693 </r>
       <r>    12.6330     0.4467    12.4144 </r>
       <r>    12.7341     0.3602    12.4508 </r>
       <r>    12.8351     0.1911    12.4701 </r>
       <r>    12.9362     0.0591    12.4761 </r>
       <r>    13.0372     0.0841    12.4846 </r>
       <r>    13.1382     0.2598    12.5108 </r>
       <r>    13.2393     0.4491    12.5562 </r>
       <r>    13.3403     0.5403    12.6108 </r>
       <r>    13.4413     0.4651    12.6578 </r>
       <r>    13.5424     0.3023    12.6883 </r>
       <r>    13.6434     0.2035    12.7089 </r>
       <r>    13.7444     0.2193    12.7310 </r>
       <r>    13.8455     0.2947    12.7608 </r>
       <r>    13.9465     0.2987    12.7910 </r>
       <r>    14.0475     0.2183    12.8130 </r>
       <r>    14.1486     0.2398    12.8373 </r>
       <r>    14.2496     0.4472    12.8825 </r>
       <r>    14.3507     0.5728    12.9403 </r>
       <r>    14.4517     0.4726    12.9881 </r>
       <r>    14.5527     0.3358    13.0220 </r>
       <r>    14.6538     0.2723    13.0495 </r>
       <r>    14.7548     0.3596    13.0858 </r>
       <r>    14.8558     0.6250    13.1490 </r>
       <r>    14.9569     0.8440    13.2343 </r>
       <r>    15.0579     0.7453    13.3096 </r>
       <r>    15.1589     0.4305    13.3531 </r>
       <r>    15.2600     0.2533    13.3787 </r>
       <r>    15.3610     0.2930    13.4083 </r>
       <r>    15.4620     0.3513    13.4438 </r>
       <r>    15.5631     0.2735    13.4714 </r>
       <r>    15.6641     0.1717    13.4887 </r>
       <r>    15.7651     0.2469    13.5137 </r>
       <r>    15.8662     0.3487    13.5489 </r>
       <r>    15.9672     0.3854    13.5879 </r>
       <r>    16.0683     0.6467    13.6532 </r>
       <r>    16.1693     0.9440    13.7486 </r>
       <r>    16.2703     0.7333    13.8227 </r>
       <r>    16.3714     0.2394    13.8469 </r>
       <r>    16.4724     0.0455    13.8514 </r>
       <r>    16.5734     0.2386    13.8755 </r>
       <r>    16.6745     0.6134    13.9375 </r>
       <r>    16.7755     0.8798    14.0264 </r>
       <r>    16.8765     0.7909    14.1063 </r>
       <r>    16.9776     0.5185    14.1587 </r>
       <r>    17.0786     0.3559    14.1947 </r>
       <r>    17.1796     0.2905    14.2240 </r>
       <r>    17.2807     0.2556    14.2498 </r>
       <r>    17.3817     0.2946    14.2796 </r>
       <r>    17.4828     0.4784    14.3279 </r>
       <r>    17.5838     0.7297    14.4017 </r>
       <r>    17.6848     0.8002    14.4825 </r>
       <r>    17.7859     0.6715    14.5504 </r>
       <r>    17.8869     0.5973    14.6107 </r>
       <r>    17.9879     0.5577    14.6671 </r>
       <r>    18.0890     0.4501    14.7125 </r>
       <r>    18.1900     0.4446    14.7574 </r>
       <r>    18.2910     0.5912    14.8172 </r>
       <r>    18.3921     0.6108    14.8789 </r>
       <r>    18.4931     0.3854    14.9178 </r>
       <r>    18.5941     0.2630    14.9444 </r>
       <r>    18.6952     0.3638    14.9812 </r>
       <r>    18.7962     0.4151    15.0231 </r>
       <r>    18.8972     0.4644    15.0700 </r>
       <r>    18.9983     0.6679    15.1375 </r>
       <r>    19.0993     0.8582    15.2242 </r>
       <r>    19.2004     0.8317    15.3083 </r>
       <r>    19.3014     0.6032    15.3692 </r>
       <r>    19.4024     0.4566    15.4153 </r>
       <r>    19.5035     0.6094    15.4769 </r>
       <r>    19.6045     0.7932    15.5571 </r>
       <r>    19.7055     0.6312    15.6208 </r>
       <r>    19.8066     0.3054    15.6517 </r>
       <r>    19.9076     0.2387    15.6758 </r>
       <r>    20.0086     0.4490    15.7212 </r>
       <r>    20.1097     0.6988    15.7918 </r>
       <r>    20.2107     0.7944    15.8720 </r>
       <r>    20.3117     0.6538    15.9381 </r>
       <r>    20.4128     0.3835    15.9768 </r>
       <r>    20.5138     0.1897    15.9960 </r>
       <r>    20.6149     0.1643    16.0126 </r>
       <r>    20.7159     0.2286    16.0357 </r>
       <r>    20.8169     0.3707    16.0731 </r>
       <r>    20.9180     0.6079    16.1346 </r>
       <r>    21.0190     0.7419    16.2095 </r>
       <r>    21.1200     0.6731    16.2775 </r>
       <r>    21.2211     0.5354    16.3316 </r>
       <r>    21.3221     0.4190    16.3739 </r>
       <r>    21.4231     0.3708    16.4114 </r>
       <r>    21.5242     0.4214    16.4540 </r>
       <r>    21.6252     0.4385    16.4983 </r>
       <r>    21.7262     0.3713    16.5358 </r>
       <r>    21.8273     0.3631    16.5725 </r>
       <r>    21.9283     0.4320    16.6161 </r>
       <r>    22.0293     0.5121    16.6679 </r>
       <r>    22.1304     0.6159    16.7301 </r>
       <r>    22.2314     0.6785    16.7987 </r>
       <r>    22.3325     0.5321    16.8524 </r>
       <r>    22.4335     0.2900    16.8817 </r>
       <r>    22.5345     0.2623    16.9082 </r>
       <r>    22.6356     0.4588    16.9546 </r>
       <r>    22.7366     0.6393    17.0192 </r>
       <r>    22.8376     0.6177    17.0816 </r>
       <r>    22.9387     0.4579    17.1279 </r>
       <r>    23.0397     0.3886    17.1671 </r>
       <r>    23.1407     0.4094    17.2085 </r>
       <r>    23.2418     0.4071    17.2496 </r>
       <r>    23.3428     0.4030    17.2903 </r>
       <r>    23.4438     0.4283    17.3336 </r>
       <r>    23.5449     0.4320    17.3773 </r>
       <r>    23.6459     0.3364    17.4112 </r>
       <r>    23.7470     0.1968    17.4311 </r>
       <r>    23.8480     0.1374    17.4450 </r>
       <r>    23.9490     0.1479    17.4599 </r>
       <r>    24.0501     0.1624    17.4764 </r>
       <r>    24.1511     0.3247    17.5092 </r>
       <r>    24.2521     0.6769    17.5776 </r>
       <r>    24.3532     0.7803    17.6564 </r>
       <r>    24.4542     0.4622    17.7031 </r>
       <r>    24.5552     0.2072    17.7240 </r>
       <r>    24.6563     0.2403    17.7483 </r>
       <r>    24.7573     0.2814    17.7767 </r>
       <r>    24.8583     0.1944    17.7964 </r>
       <r>    24.9594     0.1235    17.8089 </r>
       <r>    25.0604     0.1105    17.8200 </r>
       <r>    25.1614     0.0863    17.8288 </r>
       <r>    25.2625     0.0751    17.8364 </r>
       <r>    25.3635     0.0878    17.8452 </r>
       <r>    25.4646     0.1223    17.8576 </r>
       <r>    25.5656     0.1899    17.8768 </r>
       <r>    25.6666     0.2091    17.8979 </r>
       <r>    25.7677     0.1758    17.9157 </r>
       <r>    25.8687     0.1771    17.9336 </r>
       <r>    25.9697     0.1919    17.9529 </r>
       <r>    26.0708     0.1689    17.9700 </r>
       <r>    26.1718     0.1096    17.9811 </r>
       <r>    26.2728     0.0400    17.9851 </r>
       <r>    26.3739    -0.0023    17.9849 </r>
       <r>    26.4749    -0.0075    17.9841 </r>
       <r>    26.5759     0.0154    17.9857 </r>
       <r>    26.6770     0.0524    17.9910 </r>
       <r>    26.7780     0.0612    17.9972 </r>
       <r>    26.8791     0.0302    18.0002 </r>
       <r>    26.9801     0.0025    18.0005 </r>
       <r>    27.0811    -0.0032    18.0002 </r>
       <r>    27.1822    -0.0013    18.0000 </r>
       <r>    27.2832    -0.0002    18.0000 </r>
       <r>    27.3842     0.0000    18.0000 </r>
       <r>    27.4853     0.0000    18.0000 </r>
       <r>    27.5863     0.0000    18.0000 </r>
       <r>    27.6873     0.0000    18.0000 </r>
       <r>    27.7884     0.0000    18.0000 </r>
       <r>    27.8894     0.0000    18.0000 </r>
       <r>    27.9904     0.0000    18.0000 </r>
       <r>    28.0915     0.0000    18.0000 </r>
       <r>    28.1925     0.0000    18.0000 </r>
       <r>    28.2935     0.0000    18.0000 </r>
       <r>    28.3946     0.0000    18.0000 </r>
       <r>    28.4956     0.0000    18.0000 </r>
       <r>    28.5967     0.0000    18.0000 </r>
       <r>    28.6977     0.0000    18.0000 </r>
      </set>
     </set>
    </array>
   </total>
  </dos>
 </calculation>
 <structure name="finalpos" >
  <crystal>
   <varray name="basis" >
    <v>       2.94990807       0.00000000       0.00000000 </v>
    <v>       1.47495403       2.55469533       0.00000000 </v>
    <v>       1.47495403       0.85156511       2.40858985 </v>
   </varray>
   <i name="volume">     18.15141340 </i>
   <varray name="rec_basis" >
    <v>       0.33899361      -0.19571805      -0.13839356 </v>
    <v>       0.00000000       0.39143611      -0.13839356 </v>
    <v>       0.00000000       0.00000000       0.41518069 </v>
   </varray>
  </crystal>
  <varray name="positions" >
   <v>       0.00000000       0.00000000       0.00000000 </v>
  </varray>
 </structure>
</modeling>
