 vasp.5.3.5 31Mar14 (build Jan 09 2015 16:57:47) complex                        
  
 POSCAR found :  1 types and       1 ions
 LDA part: xc-table for Pade appr. of Perdew
 POSCAR found :  1 types and       1 ions
 POSCAR, INCAR and KPOINTS ok, starting setup
 WARNING: small aliasing (wrap around) errors must be expected
 FFT: planning ...
 WAVECAR not read
 entering main loop
       N       E                     dE             d eps       ncg     rms          rms(c)
DAV:   1     0.281574687430E+02    0.28157E+02   -0.45037E+03  1240   0.771E+02
DAV:   2    -0.276065953768E+01   -0.30918E+02   -0.28867E+02  1119   0.159E+02
DAV:   3    -0.295284376414E+01   -0.19218E+00   -0.19216E+00  1292   0.151E+01
DAV:   4    -0.295325288415E+01   -0.40912E-03   -0.40912E-03  1224   0.637E-01
DAV:   5    -0.295325537840E+01   -0.24942E-05   -0.24949E-05  1048   0.466E-02    0.444E+00
DAV:   6    -0.272596205343E+01    0.22729E+00   -0.11366E+00  1095   0.114E+01    0.300E+00
DAV:   7    -0.271995147458E+01    0.60106E-02   -0.54141E-03  1180   0.776E-01    0.172E+00
DAV:   8    -0.271748440101E+01    0.24671E-02   -0.64569E-04  1112   0.248E-01    0.546E-02
DAV:   9    -0.271749458139E+01   -0.10180E-04   -0.77185E-06   560   0.273E-02
   1 F= -.27174946E+01 E0= -.27173172E+01  d E =-.271749E+01
 curvature:   0.00 expect dE= 0.000E+00 dE for cont linesearch  0.000E+00
 trial: gam= 0.00000 g(F)=  0.293E-62 g(S)=  0.000E+00 ort = 0.000E+00 (trialstep = 0.100E+01)
 search vector abs. value=  0.100E-09
 reached required accuracy - stopping structural energy minimisation
 writing wavefunctions
