unknown system                          
           1
     2.949908    0.000000    0.000000
     1.474954    2.554695    0.000000
     1.474954    0.851565    2.408590
   Ag
   1
Direct configuration=     1
   0.00000000  0.00000000  0.00000000
