unknown system                          
   1.00000000000000     
     2.776384    0.000000    0.000000
     1.388192    2.404419    0.000000
     1.388192    0.801473    2.266908
   Ag
     1
Direct
  0.000000  0.000000  0.000000
 
   28   28   28
  116.96      113.34      103.38      89.318      73.607      58.048      43.654      31.045      20.794      13.351    
  8.7115      6.2349      4.8836      4.1499      3.9221      4.1499      4.8836      6.2349      8.7115      13.351    
  20.794      31.045      43.654      58.048      73.607      89.318      103.38      113.34      113.34      106.56    
  94.607      79.867      64.444      49.688      36.366      25.079      16.377      10.519      7.1708      5.4197    
  4.4107      3.9503      3.9508      4.4112      5.4193      7.1703      10.520      16.378      25.078      36.366    
  49.689      64.445      79.866      94.607      106.56      113.34      103.38      94.607      82.102      67.938    
  53.698      40.371      28.655      19.179      12.378      8.1984      5.9696      4.7117      4.0306      3.8195    
  4.0306      4.7117      5.9696      8.1983      12.378      19.179      28.655      40.371      53.698      67.938    
  82.102      94.607      103.38      106.56      89.319      79.866      67.938      55.107      42.525      31.027    
  21.330      13.998      9.1954      6.4995      5.0168      4.1442      3.7503      3.7499      4.1438      5.0172    
  6.4999      9.1950      13.998      21.330      31.028      42.525      55.106      67.938      79.867      89.318    
  94.607      94.607      73.608      64.445      53.698      42.525      31.858      22.498      15.101      9.9916    
  6.9617      5.2890      4.2666      3.7249      3.5589      3.7249      4.2666      5.2890      6.9617      9.9916    
  15.101      22.498      31.858      42.525      53.698      64.445      73.608      79.866      82.102      79.866    
  58.048      49.688      40.371      31.027      22.498      15.493      10.435      7.2812      5.4922      4.3748    
  3.7248      3.4363      3.4366      3.7250      4.3745      5.4919      7.2814      10.435      15.492      22.498    
  31.028      40.371      49.688      58.048      64.445      67.938      67.938      64.445      43.654      36.366    
  28.655      21.330      15.101      10.435      7.3960      5.6002      4.4477      3.7340      3.3636      3.2510    
  3.3636      3.7340      4.4477      5.6003      7.3960      10.435      15.101      21.330      28.655      36.366    
  43.654      49.688      53.698      55.107      53.698      49.688      31.045      25.079      19.179      13.998    
  9.9916      7.2814      5.6004      4.4734      3.7409      3.3255      3.1428      3.1427      3.3254      3.7410    
  4.4735      5.6003      7.2813      9.9916      13.998      19.178      25.078      31.045      36.366      40.371    
  42.525      42.525      40.371      36.366      20.794      16.378      12.378      9.1952      6.9615      5.4920    
  4.4477      3.7410      3.3136      3.0932      3.0261      3.0931      3.3135      3.7410      4.4477      5.4920    
  6.9615      9.1952      12.378      16.378      20.794      25.078      28.655      31.027      31.858      31.027    
  28.655      25.078      13.351      10.520      8.1987      6.4997      5.2890      4.3747      3.7339      3.3255    
  3.0932      2.9899      2.9899      3.0932      3.3254      3.7339      4.3747      5.2890      6.4997      8.1987    
  10.519      13.351      16.378      19.178      21.330      22.498      22.498      21.330      19.178      16.378    
  8.7112      7.1706      5.9696      5.0170      4.2668      3.7249      3.3636      3.1428      3.0261      2.9899    
  3.0261      3.1428      3.3637      3.7249      4.2668      5.0170      5.9696      7.1707      8.7112      10.519    
  12.378      13.998      15.101      15.493      15.101      13.998      12.378      10.519      6.2348      5.4195    
  4.7114      4.1440      3.7248      3.4365      3.2511      3.1428      3.0931      3.0932      3.1428      3.2511    
  3.4364      3.7249      4.1440      4.7114      5.4195      6.2350      7.1706      8.1987      9.1952      9.9916    
  10.435      10.435      9.9916      9.1952      8.1987      7.1705      4.8839      4.4109      4.0306      3.7501    
  3.5586      3.4365      3.3637      3.3254      3.3135      3.3254      3.3637      3.4365      3.5586      3.7501    
  4.0306      4.4109      4.8840      5.4196      5.9696      6.4997      6.9615      7.2813      7.3960      7.2813    
  6.9615      6.4997      5.9696      5.4195      4.1499      3.9505      3.8198      3.7501      3.7249      3.7249    
  3.7339      3.7410      3.7410      3.7339      3.7249      3.7249      3.7501      3.8198      3.9505      4.1499    
  4.4109      4.7114      5.0170      5.2890      5.4920      5.6004      5.6004      5.4920      5.2890      5.0170    
  4.7114      4.4110      3.9217      3.9506      4.0306      4.1440      4.2668      4.3747      4.4477      4.4734    
  4.4477      4.3747      4.2668      4.1440      4.0306      3.9505      3.9217      3.9505      4.0306      4.1440    
  4.2668      4.3747      4.4477      4.4734      4.4477      4.3747      4.2668      4.1440      4.0306      3.9506    
  4.1499      4.4110      4.7114      5.0170      5.2890      5.4920      5.6004      5.6004      5.4920      5.2890    
  5.0170      4.7114      4.4109      4.1499      3.9505      3.8198      3.7501      3.7249      3.7249      3.7339    
  3.7410      3.7410      3.7339      3.7249      3.7249      3.7501      3.8198      3.9505      4.8839      5.4195    
  5.9696      6.4997      6.9615      7.2813      7.3960      7.2813      6.9615      6.4997      5.9696      5.4196    
  4.8840      4.4109      4.0306      3.7501      3.5586      3.4365      3.3637      3.3254      3.3135      3.3254    
  3.3637      3.4365      3.5586      3.7501      4.0306      4.4109      6.2348      7.1705      8.1987      9.1952    
  9.9916      10.435      10.435      9.9916      9.1952      8.1987      7.1706      6.2350      5.4195      4.7114    
  4.1440      3.7249      3.4364      3.2511      3.1428      3.0932      3.0931      3.1428      3.2511      3.4365    
  3.7248      4.1440      4.7114      5.4195      8.7112      10.519      12.378      13.998      15.101      15.493    
  15.101      13.998      12.378      10.519      8.7112      7.1707      5.9696      5.0170      4.2668      3.7249    
  3.3637      3.1428      3.0261      2.9899      3.0261      3.1428      3.3636      3.7249      4.2668      5.0170    
  5.9696      7.1706      13.351      16.378      19.178      21.330      22.498      22.498      21.330      19.178    
  16.378      13.351      10.519      8.1987      6.4997      5.2890      4.3747      3.7339      3.3254      3.0932    
  2.9899      2.9899      3.0932      3.3255      3.7339      4.3747      5.2890      6.4997      8.1987      10.520    
  20.794      25.078      28.655      31.027      31.858      31.027      28.655      25.078      20.794      16.378    
  12.378      9.1952      6.9615      5.4920      4.4477      3.7410      3.3135      3.0931      3.0261      3.0932    
  3.3136      3.7410      4.4477      5.4920      6.9615      9.1952      12.378      16.378      31.045      36.366    
  40.371      42.525      42.525      40.371      36.366      31.045      25.078      19.178      13.998      9.9916    
  7.2813      5.6003      4.4735      3.7410      3.3254      3.1427      3.1428      3.3255      3.7409      4.4734    
  5.6004      7.2814      9.9916      13.998      19.179      25.079      43.654      49.688      53.698      55.107    
  53.698      49.688      43.654      36.366      28.655      21.330      15.101      10.435      7.3960      5.6003    
  4.4477      3.7340      3.3636      3.2510      3.3636      3.7340      4.4477      5.6002      7.3960      10.435    
  15.101      21.330      28.655      36.366      58.048      64.445      67.938      67.938      64.445      58.048    
  49.688      40.371      31.028      22.498      15.492      10.435      7.2814      5.4919      4.3745      3.7250    
  3.4366      3.4363      3.7248      4.3748      5.4922      7.2812      10.435      15.493      22.498      31.027    
  40.371      49.688      73.608      79.866      82.102      79.866      73.608      64.445      53.698      42.525    
  31.858      22.498      15.101      9.9916      6.9617      5.2890      4.2666      3.7249      3.5589      3.7249    
  4.2666      5.2890      6.9617      9.9916      15.101      22.498      31.858      42.525      53.698      64.445    
  89.319      94.607      94.607      89.318      79.867      67.938      55.106      42.525      31.028      21.330    
  13.998      9.1950      6.4999      5.0172      4.1438      3.7499      3.7503      4.1442      5.0168      6.4995    
  9.1954      13.998      21.330      31.027      42.525      55.107      67.938      79.866      103.38      106.56    
  103.38      94.607      82.102      67.938      53.698      40.371      28.655      19.179      12.378      8.1983    
  5.9696      4.7117      4.0306      3.8195      4.0306      4.7117      5.9696      8.1984      12.378      19.179    
  28.655      40.371      53.698      67.938      82.102      94.607      113.34      113.34      106.56      94.607    
  79.866      64.445      49.689      36.366      25.078      16.378      10.520      7.1703      5.4193      4.4112    
  3.9508      3.9503      4.4107      5.4197      7.1708      10.519      16.377      25.079      36.366      49.688    
  64.444      79.867      94.607      106.56      113.34      106.56      94.607      79.867      64.444      49.688    
  36.366      25.079      16.377      10.519      7.1708      5.4197      4.4107      3.9503      3.9508      4.4112    
  5.4193      7.1703      10.520      16.378      25.078      36.366      49.689      64.445      79.866      94.607    
  106.56      113.34      106.56      97.398      84.389      69.727      55.066      41.403      29.408      19.691    
  12.689      8.3646      6.0588      4.7719      4.0737      3.8571      4.0737      4.7719      6.0588      8.3645    
  12.689      19.691      29.408      41.403      55.066      69.727      84.389      97.398      106.56      109.88    
  94.607      84.389      71.598      57.974      44.727      32.670      22.484      14.732      9.6060      6.7132    
  5.1518      4.2368      3.8222      3.8218      4.2364      5.1522      6.7136      9.6056      14.731      22.485    
  32.671      44.727      57.974      71.598      84.389      94.607      100.35      100.35      79.867      69.727    
  57.974      45.890      34.423      24.347      16.320      10.703      7.3355      5.5089      4.4143      3.8304    
  3.6510      3.8304      4.4143      5.5089      7.3355      10.703      16.320      24.348      34.423      45.890    
  57.974      69.726      79.867      86.858      89.368      86.859      64.445      55.066      44.727      34.422    
  25.001      17.188      11.458      7.8317      5.8002      4.5795      3.8630      3.5436      3.5439      3.8633    
  4.5792      5.7999      7.8320      11.458      17.188      25.001      34.423      44.727      55.066      64.445    
  71.703      75.699      75.698      71.702      49.688      41.403      32.670      24.347      17.188      11.728    
  8.1091      5.9932      4.7051      3.9014      3.4820      3.3542      3.4820      3.9014      4.7051      5.9932    
  8.1091      11.728      17.188      24.347      32.670      41.403      49.688      56.605      61.239      62.875    
  61.239      56.605      36.366      29.409      22.485      16.320      11.458      8.1092      6.0617      4.7729    
  3.9299      3.4493      3.2377      3.2376      3.4492      3.9301      4.7730      6.0615      8.1090      11.458    
  16.320      22.484      29.408      36.366      42.571      47.257      49.787      49.787      47.257      42.571    
  25.078      19.691      14.732      10.703      7.8318      5.9933      4.7730      3.9405      3.4352      3.1750    
  3.0961      3.1750      3.4352      3.9405      4.7730      5.9934      7.8318      10.703      14.732      19.690    
  25.078      30.254      34.556      37.407      38.405      37.407      34.556      30.254      16.378      12.689    
  9.6058      7.3353      5.8001      4.7051      3.9300      3.4353      3.1553      3.0317      3.0318      3.1553    
  3.4352      3.9300      4.7052      5.8001      7.3353      9.6058      12.689      16.378      20.253      23.794    
  26.494      27.954      27.954      26.494      23.794      20.253      10.520      8.3649      6.7134      5.5089    
  4.5793      3.9013      3.4493      3.1750      3.0318      2.9877      3.0318      3.1750      3.4493      3.9013    
  4.5793      5.5089      6.7135      8.3649      10.519      13.019      15.546      17.720      19.189      19.707    
  19.189      17.720      15.546      13.019      7.1706      6.0589      5.1520      4.4145      3.8631      3.4820    
  3.2377      3.0960      3.0317      3.0318      3.0961      3.2377      3.4820      3.8632      4.4145      5.1520    
  6.0589      7.1707      8.5324      10.046      11.502      12.655      13.292      13.292      12.655      11.502    
  10.046      8.5324      5.4195      4.7716      4.2366      3.8304      3.5438      3.3543      3.2377      3.1750    
  3.1553      3.1750      3.2377      3.3543      3.5438      3.8304      4.2366      4.7716      5.4195      6.1404    
  6.9252      7.7329      8.4532      8.9548      9.1349      8.9548      8.4532      7.7328      6.9251      6.1403    
  4.4109      4.0737      3.8220      3.6507      3.5438      3.4820      3.4493      3.4352      3.4352      3.4493    
  3.4820      3.5438      3.6507      3.8219      4.0737      4.4110      4.8207      5.2708      5.7145      6.1089    
  6.4150      6.5844      6.5844      6.4150      6.1089      5.7144      5.2707      4.8207      3.9506      3.8574    
  3.8220      3.8304      3.8632      3.9013      3.9300      3.9405      3.9300      3.9013      3.8632      3.8304    
  3.8220      3.8573      3.9505      4.1045      4.3083      4.5385      4.7636      4.9517      5.0761      5.1195    
  5.0761      4.9517      4.7636      4.5385      4.3083      4.1045      3.9506      4.0737      4.2366      4.4145    
  4.5793      4.7051      4.7730      4.7730      4.7051      4.5793      4.4145      4.2366      4.0737      3.9505    
  3.8821      3.8708      3.9065      3.9705      4.0413      4.0999      4.1327      4.1327      4.0999      4.0413    
  3.9705      3.9065      3.8709      3.8822      4.4110      4.7716      5.1520      5.5089      5.8000      5.9933    
  6.0616      5.9934      5.8001      5.5089      5.1521      4.7716      4.4109      4.1045      3.8708      3.7115    
  3.6149      3.5631      3.5387      3.5288      3.5262      3.5288      3.5387      3.5631      3.6149      3.7115    
  3.8709      4.1045      5.4195      6.0588      6.7134      7.3353      7.8318      8.1091      8.1091      7.8319    
  7.3353      6.7135      6.0589      5.4196      4.8207      4.3083      3.9065      3.6149      3.4170      3.2908    
  3.2170      3.1831      3.1831      3.2170      3.2908      3.4170      3.6149      3.9065      4.3083      4.8207    
  7.1705      8.3648      9.6058      10.703      11.458      11.727      11.458      10.703      9.6058      8.3649    
  7.1706      6.1404      5.2708      4.5384      3.9705      3.5631      3.2908      3.1224      3.0321      3.0037    
  3.0320      3.1223      3.2908      3.5631      3.9705      4.5384      5.2707      6.1403      10.519      12.689    
  14.732      16.320      17.188      17.188      16.320      14.731      12.689      10.519      8.5324      6.9252    
  5.7144      4.7636      4.0413      3.5387      3.2170      3.0320      2.9488      2.9488      3.0321      3.2170    
  3.5386      4.0413      4.7636      5.7144      6.9251      8.5324      16.378      19.690      22.485      24.348    
  25.001      24.348      22.485      19.690      16.378      13.019      10.046      7.7329      6.1089      4.9517    
  4.0999      3.5288      3.1831      3.0037      2.9488      3.0037      3.1831      3.5288      4.0999      4.9517    
  6.1089      7.7328      10.046      13.019      25.078      29.408      32.670      34.422      34.422      32.670    
  29.408      25.078      20.253      15.546      11.502      8.4532      6.4150      5.0761      4.1327      3.5263    
  3.1831      3.0320      3.0321      3.1832      3.5262      4.1326      5.0761      6.4150      8.4532      11.502    
  15.546      20.253      36.366      41.403      44.727      45.890      44.727      41.403      36.366      30.254    
  23.794      17.720      12.655      8.9549      6.5844      5.1195      4.1327      3.5289      3.2170      3.1223    
  3.2170      3.5289      4.1327      5.1194      6.5844      8.9549      12.655      17.720      23.794      30.254    
  49.688      55.066      57.974      57.974      55.066      49.688      42.571      34.556      26.494      19.189    
  13.292      9.1349      6.5845      5.0760      4.0998      3.5388      3.2908      3.2907      3.5386      4.1000    
  5.0762      6.5843      9.1347      13.292      19.189      26.494      34.555      42.571      64.445      69.726    
  71.598      69.726      64.445      56.605      47.257      37.407      27.954      19.707      13.292      8.9548    
  6.4152      4.9517      4.0412      3.5631      3.4172      3.5631      4.0411      4.9517      6.4152      8.9548    
  13.292      19.707      27.954      37.407      47.257      56.605      79.867      84.389      84.388      79.866    
  71.703      61.239      49.787      38.405      27.954      19.189      12.655      8.4531      6.1091      4.7638    
  3.9703      3.6147      3.6151      3.9706      4.7634      6.1087      8.4534      12.655      19.189      27.954    
  38.405      49.788      61.239      71.702      94.607      97.399      94.607      86.858      75.698      62.875    
  49.787      37.406      26.494      17.721      11.502      7.7325      5.7144      4.5388      3.9065      3.7113    
  3.9065      4.5387      5.7144      7.7326      11.502      17.721      26.494      37.406      49.787      62.875    
  75.699      86.858      106.56      106.56      100.35      89.368      75.698      61.239      47.257      34.555    
  23.794      15.547      10.046      6.9249      5.2705      4.3086      3.8711      3.8706      4.3081      5.2709    
  6.9253      10.045      15.546      23.794      34.556      47.257      61.239      75.699      89.368      100.35    
  113.34      109.88      100.35      86.859      71.702      56.605      42.571      30.254      20.252      13.019    
  8.5327      6.1403      4.8204      4.1045      3.8825      4.1045      4.8204      6.1403      8.5327      13.019    
  20.252      30.254      42.571      56.605      71.702      86.859      100.35      109.88      103.38      94.607    
  82.102      67.938      53.698      40.371      28.655      19.179      12.378      8.1984      5.9696      4.7117    
  4.0306      3.8195      4.0306      4.7117      5.9696      8.1983      12.378      19.179      28.655      40.371    
  53.698      67.938      82.102      94.607      103.38      106.56      94.607      84.389      71.598      57.974    
  44.727      32.670      22.484      14.732      9.6060      6.7132      5.1518      4.2368      3.8222      3.8218    
  4.2364      5.1522      6.7136      9.6056      14.731      22.485      32.671      44.727      57.974      71.598    
  84.389      94.607      100.35      100.35      82.102      71.598      59.477      47.064      35.316      24.994    
  16.749      10.956      7.4687      5.5853      4.4657      3.8671      3.6829      3.8671      4.4657      5.5853    
  7.4687      10.956      16.749      24.994      35.316      47.064      59.477      71.598      82.102      89.368    
  91.980      89.368      67.938      57.974      47.064      36.239      26.347      18.109      12.021      8.1370    
  5.9656      4.6888      3.9368      3.6007      3.6010      3.9371      4.6885      5.9652      8.1372      12.022    
  18.109      26.346      36.239      47.064      57.974      67.938      75.699      79.991      79.990      75.698    
  53.698      44.727      35.316      26.346      18.588      12.610      8.6009      6.2557      4.8739      4.0113    
  3.5592      3.4212      3.5592      4.0113      4.8739      6.2557      8.6009      12.610      18.588      26.346    
  35.316      44.727      53.698      61.239      66.323      68.125      66.323      61.239      40.371      32.670    
  24.994      18.109      12.609      8.7672      6.4155      4.9960      4.0712      3.5413      3.3075      3.3073    
  3.5411      4.0714      4.9962      6.4153      8.7670      12.610      18.109      24.994      32.670      40.371    
  47.257      52.484      55.318      55.318      52.484      47.257      28.655      22.485      16.750      12.022    
  8.6009      6.4154      5.0387      4.1047      3.5348      3.2411      3.1520      3.2411      3.5347      4.1047    
  5.0387      6.4154      8.6008      12.021      16.750      22.485      28.655      34.556      39.459      42.714    
  43.856      42.714      39.459      34.556      19.178      14.732      10.956      8.1371      6.2559      4.9960    
  4.1047      3.5334      3.2106      3.0686      3.0686      3.2106      3.5333      4.1046      4.9961      6.2559    
  8.1371      10.956      14.731      19.178      23.794      27.981      31.162      32.880      32.880      31.162    
  27.981      23.794      12.378      9.6058      7.4685      5.9654      4.8739      4.0713      3.5348      3.2106    
  3.0424      2.9910      3.0424      3.2106      3.5348      4.0713      4.8739      5.9654      7.4685      9.6058    
  12.378      15.546      18.708      21.402      23.212      23.850      23.212      21.402      18.708      15.546    
  8.1987      6.7134      5.5853      4.6887      4.0111      3.5412      3.2411      3.0686      2.9910      2.9910    
  3.0686      3.2411      3.5412      4.0111      4.6887      5.5853      6.7135      8.1987      10.046      12.082    
  14.020      15.539      16.374      16.374      15.539      14.020      12.082      10.046      5.9696      5.1520    
  4.4660      3.9369      3.5592      3.3074      3.1520      3.0686      3.0424      3.0686      3.1520      3.3074    
  3.5592      3.9370      4.4660      5.1521      5.9696      6.9252      8.0311      9.1873      10.217      10.931    
  11.186      10.931      10.217      9.1873      8.0311      6.9251      4.7114      4.2366      3.8671      3.6008    
  3.4213      3.3074      3.2411      3.2106      3.2106      3.2411      3.3074      3.4213      3.6008      3.8670    
  4.2366      4.7114      5.2708      5.8709      6.4789      7.0548      7.5158      7.7739      7.7739      7.5159    
  7.0548      6.4788      5.8708      5.2707      4.0306      3.8220      3.6827      3.6009      3.5592      3.5412    
  3.5348      3.5334      3.5348      3.5412      3.5592      3.6008      3.6827      3.8219      4.0306      4.3083    
  4.6390      4.9911      5.3243      5.5972      5.7773      5.8407      5.7773      5.5972      5.3242      4.9911    
  4.6389      4.3083      3.8198      3.8220      3.8671      3.9370      4.0112      4.0713      4.1047      4.1047    
  4.0713      4.0111      3.9369      3.8670      3.8220      3.8198      3.8708      3.9739      4.1158      4.2739    
  4.4223      4.5365      4.5984      4.5984      4.5365      4.4223      4.2740      4.1158      3.9740      3.8709    
  4.0306      4.2366      4.4660      4.6887      4.8739      4.9961      5.0387      4.9961      4.8739      4.6887    
  4.4660      4.2366      4.0306      3.8708      3.7683      3.7209      3.7161      3.7365      3.7645      3.7867    
  3.7949      3.7867      3.7645      3.7365      3.7161      3.7209      3.7684      3.8709      4.7114      5.1520    
  5.5853      5.9654      6.2559      6.4154      6.4154      6.2559      5.9654      5.5853      5.1521      4.7114    
  4.3083      3.9739      3.7209      3.5450      3.4314      3.3628      3.3245      3.3075      3.3075      3.3245    
  3.3628      3.4314      3.5449      3.7209      3.9740      4.3084      5.9696      6.7134      7.4685      8.1371    
  8.6009      8.7671      8.6009      8.1371      7.4685      6.7135      5.9696      5.2708      4.6390      4.1157    
  3.7161      3.4314      3.2406      3.1211      3.0561      3.0354      3.0560      3.1211      3.2405      3.4314    
  3.7161      4.1157      4.6389      5.2707      8.1987      9.6058      10.956      12.022      12.609      12.609    
  12.021      10.956      9.6058      8.1987      6.9252      5.8709      4.9911      4.2739      3.7364      3.3628    
  3.1212      2.9796      2.9148      2.9148      2.9796      3.1211      3.3628      3.7365      4.2740      4.9911    
  5.8708      6.9251      12.378      14.732      16.750      18.109      18.588      18.109      16.750      14.731    
  12.378      10.046      8.0311      6.4789      5.3243      4.4223      3.7645      3.3245      3.0561      2.9148    
  2.8712      2.9148      3.0561      3.3245      3.7645      4.4223      5.3242      6.4788      8.0311      10.046    
  19.178      22.485      24.994      26.346      26.346      24.994      22.485      19.178      15.546      12.082    
  9.1873      7.0548      5.5972      4.5365      3.7867      3.3075      3.0354      2.9148      2.9148      3.0354    
  3.3075      3.7867      4.5365      5.5972      7.0548      9.1873      12.082      15.546      28.655      32.670    
  35.316      36.239      35.316      32.670      28.655      23.794      18.708      14.020      10.217      7.5159    
  5.7773      4.5983      3.7949      3.3075      3.0560      2.9796      3.0561      3.3075      3.7949      4.5983    
  5.7773      7.5159      10.217      14.020      18.708      23.794      40.371      44.727      47.064      47.064    
  44.727      40.371      34.556      27.981      21.402      15.539      10.931      7.7740      5.8408      4.5983    
  3.7866      3.3246      3.1212      3.1211      3.3245      3.7867      4.5984      5.8407      7.7738      10.931    
  15.539      21.402      27.981      34.556      53.698      57.974      59.477      57.974      53.698      47.257    
  39.459      31.162      23.212      16.374      11.186      7.7739      5.7774      4.5365      3.7643      3.3628    
  3.2407      3.3628      3.7643      4.5365      5.7774      7.7739      11.186      16.374      23.212      31.162    
  39.459      47.257      67.938      71.598      71.598      67.938      61.239      52.484      42.714      32.880    
  23.850      16.374      10.930      7.5157      5.5973      4.4224      3.7363      3.4313      3.4315      3.7366    
  4.4222      5.5970      7.5160      10.931      16.374      23.849      32.880      42.714      52.484      61.239    
  82.102      84.389      82.102      75.698      66.323      55.318      43.856      32.880      23.212      15.539    
  10.217      7.0546      5.3242      4.2742      3.7161      3.5447      3.7161      4.2742      5.3242      7.0546    
  10.217      15.539      23.212      32.880      43.856      55.318      66.323      75.698      94.607      94.607    
  89.368      79.990      68.125      55.318      42.714      31.162      21.402      14.020      9.1875      6.4786    
  4.9909      4.1160      3.7211      3.7207      4.1156      4.9913      6.4790      9.1871      14.019      21.402    
  31.162      42.714      55.318      68.125      79.991      89.368      103.38      100.35      91.981      79.991    
  66.323      52.484      39.459      27.981      18.708      12.082      8.0314      5.8708      4.6386      3.9740    
  3.7687      3.9740      4.6386      5.8708      8.0314      12.082      18.708      27.981      39.459      52.484    
  66.323      79.991      91.981      100.35      106.56      100.35      89.368      75.699      61.239      47.257    
  34.556      23.794      15.546      10.045      6.9253      5.2709      4.3081      3.8706      3.8711      4.3086    
  5.2705      6.9249      10.046      15.547      23.794      34.555      47.257      61.239      75.698      89.368    
  100.35      106.56      89.319      79.866      67.938      55.107      42.525      31.027      21.330      13.998    
  9.1954      6.4995      5.0168      4.1442      3.7503      3.7499      4.1438      5.0172      6.4999      9.1950    
  13.998      21.330      31.028      42.525      55.106      67.938      79.867      89.318      94.607      94.607    
  79.867      69.727      57.974      45.890      34.423      24.347      16.320      10.703      7.3355      5.5089    
  4.4143      3.8304      3.6510      3.8304      4.4143      5.5089      7.3355      10.703      16.320      24.348    
  34.423      45.890      57.974      69.726      79.867      86.858      89.368      86.859      67.938      57.974    
  47.064      36.239      26.347      18.109      12.021      8.1370      5.9656      4.6888      3.9368      3.6007    
  3.6010      3.9371      4.6885      5.9652      8.1372      12.022      18.109      26.346      36.239      47.064    
  57.974      67.938      75.699      79.991      79.990      75.698      55.107      45.890      36.239      27.045    
  19.081      12.923      8.7766      6.3485      4.9327      4.0496      3.5860      3.4444      3.5860      4.0496    