unknown system                          
   1.00000000000000     
     2.776384    0.000000    0.000000
     1.388192    2.404419    0.000000
     1.388192    0.801473    2.266908
   Ag
     1
Direct
  0.000000  0.000000  0.000000
 
   28   28   28
 0.11696383113E+03 0.11334020632E+03 0.10338066669E+03 0.89318364311E+02 0.73607076276E+02
 0.58048380506E+02 0.43654216506E+02 0.31045356310E+02 0.20794030631E+02 0.13350717583E+02
 0.87115091764E+01 0.62348619770E+01 0.48835957299E+01 0.41498769426E+01 0.39220571545E+01
 0.41498769426E+01 0.48835957299E+01 0.62348619770E+01 0.87115091764E+01 0.13350717583E+02
 0.20794030631E+02 0.31045356310E+02 0.43654216506E+02 0.58048380506E+02 0.73607076276E+02
 0.89318364311E+02 0.10338066669E+03 0.11334020632E+03 0.11333996769E+03 0.10655734664E+03
 0.94607419709E+02 0.79866818181E+02 0.64444451069E+02 0.49688068893E+02 0.36366497942E+02
 0.25078714689E+02 0.16377433457E+02 0.10519276392E+02 0.71708245299E+01 0.54197388551E+01
 0.44106946132E+01 0.39503100460E+01 0.39508132457E+01 0.44112108361E+01 0.54192553905E+01
 0.71702993573E+01 0.10519716345E+02 0.16377906286E+02 0.25078241505E+02 0.36366015096E+02
 0.49688538934E+02 0.64444908560E+02 0.79866252708E+02 0.94606758892E+02 0.10655761907E+03
 0.11334035349E+03 0.10338032017E+03 0.94606869827E+02 0.82101934948E+02 0.67938113933E+02
 0.53697823549E+02 0.40370695139E+02 0.28655054972E+02 0.19178825958E+02 0.12378067069E+02
 0.81983788889E+01 0.59695736738E+01 0.47117223587E+01 0.40305858346E+01 0.38194918583E+01
 0.40306060596E+01 0.47117416772E+01 0.59695687791E+01 0.81983454454E+01 0.12378026054E+02
 0.19178805665E+02 0.28655064327E+02 0.40370708553E+02 0.53697793023E+02 0.67938004206E+02
 0.82101753502E+02 0.94606675717E+02 0.10338019444E+03 0.10655769170E+03 0.89318555641E+02
 0.79866388222E+02 0.67937611349E+02 0.55106841492E+02 0.42524915808E+02 0.31027171126E+02
 0.21330024510E+02 0.13997973951E+02 0.91953891766E+01 0.64994821166E+01 0.50167936274E+01
 0.41442249351E+01 0.37503113778E+01 0.37499279291E+01 0.41438491483E+01 0.50171971153E+01
 0.64998788703E+01 0.91949862022E+01 0.13997549372E+02 0.21330392620E+02 0.31027585999E+02
 0.42524560907E+02 0.55106416141E+02 0.67937885780E+02 0.79866666330E+02 0.89318121744E+02
 0.94606795640E+02 0.94607188851E+02 0.73607642579E+02 0.64444689698E+02 0.53697603764E+02
 0.42524724478E+02 0.31858298428E+02 0.22497948840E+02 0.15101069665E+02 0.99916348166E+01
 0.69617413024E+01 0.52889525740E+01 0.42666011987E+01 0.37248503526E+01 0.35588840730E+01
 0.37248687962E+01 0.42666233890E+01 0.52889607425E+01 0.69617293886E+01 0.99916142961E+01
 0.15101061582E+02 0.22497968817E+02 0.31858343373E+02 0.42524775262E+02 0.53697637228E+02
 0.64444693618E+02 0.73607626207E+02 0.79866475000E+02 0.82101533717E+02 0.79866491336E+02
 0.58048496726E+02 0.49688423742E+02 0.40370890172E+02 0.31027246236E+02 0.22498065061E+02
 0.15492682595E+02 0.10434587488E+02 0.72812013522E+01 0.54921520352E+01 0.43747715936E+01
 0.37247635555E+01 0.34363314057E+01 0.34365787923E+01 0.37250220913E+01 0.43745448507E+01
 0.54919000421E+01 0.72814155773E+01 0.10434823886E+02 0.15492467245E+02 0.22497850428E+02
 0.31027509895E+02 0.40371189250E+02 0.49688280119E+02 0.58048331084E+02 0.64444809838E+02
 0.67937810670E+02 0.67937576732E+02 0.64444553711E+02 0.43653869988E+02 0.36366369529E+02
 0.28655054972E+02 0.21330105625E+02 0.15101289450E+02 0.10434813924E+02 0.73960298652E+01
 0.56002433479E+01 0.44476896534E+01 0.37340139670E+01 0.33636458213E+01 0.32509981100E+01
 0.33636394038E+01 0.37340083674E+01 0.44476916910E+01 0.56002513633E+01 0.73960321269E+01
 0.10434799387E+02 0.15101257196E+02 0.21330074815E+02 0.28655052079E+02 0.36366413067E+02
 0.43653955410E+02 0.49688286124E+02 0.53697857013E+02 0.55106717687E+02 0.53697793023E+02
 0.49688190090E+02 0.31045311989E+02 0.25078520381E+02 0.19178559025E+02 0.13997738300E+02
 0.99915904959E+01 0.72813618935E+01 0.56003978842E+01 0.44733707118E+01 0.37409295912E+01
 0.33255145741E+01 0.31428388233E+01 0.31427297117E+01 0.33253912688E+01 0.37410124915E+01
 0.44734861230E+01 0.56003311128E+01 0.72812560802E+01 0.99916232680E+01 0.13997752732E+02
 0.19178404631E+02 0.25078399553E+02 0.31045414059E+02 0.36366347172E+02 0.40371028709E+02
 0.42524730941E+02 0.42524796558E+02 0.40371064127E+02 0.36366209404E+02 0.20794351602E+02
 0.16377672086E+02 0.12378092615E+02 0.91951978463E+01 0.69614959704E+01 0.54920358147E+01
 0.44477152003E+01 0.37409739120E+01 0.33135615836E+01 0.30931562535E+01 0.30261183735E+01
 0.30931373438E+01 0.33135375140E+01 0.37409620446E+01 0.44477208548E+01 0.54920497363E+01
 0.69614958115E+01 0.91951690054E+01 0.12378034296E+02 0.16377600013E+02 0.20794290167E+02
 0.25078443873E+02 0.28655077626E+02 0.31027393674E+02 0.31858098041E+02 0.31027394668E+02
 0.28655089874E+02 0.25078480133E+02 0.13350717247E+02 0.10519514684E+02 0.81986904787E+01
 0.64996737830E+01 0.52889522379E+01 0.43746550370E+01 0.37339040876E+01 0.33254705894E+01
 0.30931559174E+01 0.29898902879E+01 0.29898915354E+01 0.30931502853E+01 0.33254482769E+01
 0.37338839821E+01 0.43746639171E+01 0.52889945831E+01 0.64997197320E+01 0.81987072724E+01
 0.10519489549E+02 0.13350656198E+02 0.16377599677E+02 0.19178448616E+02 0.21330185366E+02
 0.22497966984E+02 0.22497968481E+02 0.21330200953E+02 0.19178494747E+02 0.16377667994E+02
 0.87111626587E+01 0.71705989444E+01 0.59695736738E+01 0.50169719147E+01 0.42668209838E+01
 0.37248928190E+01 0.33636458213E+01 0.31427814596E+01 0.30260928266E+01 0.29899042423E+01
 0.30260985426E+01 0.31427895697E+01 0.33636523886E+01 0.37249009812E+01 0.42668372528E+01
 0.50170042075E+01 0.59696230185E+01 0.71706500856E+01 0.87112013640E+01 0.10519476170E+02
 0.12378008750E+02 0.13997721454E+02 0.15101257196E+02 0.15492570422E+02 0.15101281367E+02
 0.13997753745E+02 0.12378026054E+02 0.10519464674E+02 0.62348498708E+01 0.54195123328E+01
 0.47114232111E+01 0.41440214986E+01 0.37248382464E+01 0.34364597324E+01 0.32511204316E+01
 0.31427619264E+01 0.30931252377E+01 0.30931620554E+01 0.31428147188E+01 0.32511241739E+01
 0.34364486712E+01 0.37248572287E+01 0.41440318410E+01 0.47114019398E+01 0.54195410836E+01
 0.62349731111E+01 0.71706491488E+01 0.81986955023E+01 0.91951568993E+01 0.99915910534E+01
 0.10434701277E+02 0.10434695560E+02 0.99916021899E+01 0.91951896387E+01 0.81986688053E+01
 0.71705258796E+01 0.48839276611E+01 0.44109332416E+01 0.40306004211E+01 0.37501200474E+01
 0.35586497014E+01 0.34364625718E+01 0.33636539903E+01 0.33254355896E+01 0.33135484743E+01
 0.33254486129E+01 0.33636669752E+01 0.34364607773E+01 0.35586280470E+01 0.37500893115E+01
 0.40305832600E+01 0.44109442157E+01 0.48839687084E+01 0.54195531897E+01 0.59696376050E+01
 0.64997200681E+01 0.69615067718E+01 0.72813004009E+01 0.73960467134E+01 0.72812993567E+01
 0.69614950170E+01 0.64996875399E+01 0.59695833656E+01 0.54194940189E+01 0.41498711759E+01
 0.39505429078E+01 0.38198088787E+01 0.37501250261E+01 0.37248630295E+01 0.37249001041E+01
 0.37339039186E+01 0.37409739373E+01 0.37409562779E+01 0.37338785516E+01 0.37248937049E+01
 0.37248508892E+01 0.37500835448E+01 0.38197663168E+01 0.39505279579E+01 0.41498567209E+01
 0.44109384491E+01 0.47114082793E+01 0.50170230171E+01 0.52890000136E+01 0.54920439696E+01
 0.56003696669E+01 0.56003673454E+01 0.54920220292E+01 0.52889549759E+01 0.50170000183E+01
 0.47114361901E+01 0.44109779743E+01 0.39217106368E+01 0.39505746173E+01 0.40306060596E+01
 0.41440404786E+01 0.42668431741E+01 0.43746610712E+01 0.44476916910E+01 0.44734418022E+01
 0.44476953079E+01 0.43746635810E+01 0.42668372528E+01 0.41440197349E+01 0.40305686735E+01
 0.39505221913E+01 0.39216519987E+01 0.39505221913E+01 0.40305686735E+01 0.41440197349E+01
 0.42668372528E+01 0.43746635810E+01 0.44476953079E+01 0.44734418022E+01 0.44476916910E+01
 0.43746610712E+01 0.42668431741E+01 0.41440404786E+01 0.40306060596E+01 0.39505746173E+01
 0.41498711759E+01 0.44109779743E+01 0.47114361901E+01 0.50170000183E+01 0.52889549759E+01
 0.54920220292E+01 0.56003673454E+01 0.56003696669E+01 0.54920439696E+01 0.52890000136E+01
 0.50170230171E+01 0.47114082793E+01 0.44109384491E+01 0.41498567209E+01 0.39505279579E+01
 0.38197663168E+01 0.37500835448E+01 0.37248508892E+01 0.37248937049E+01 0.37338785516E+01
 0.37409562779E+01 0.37409739373E+01 0.37339039186E+01 0.37249001041E+01 0.37248630295E+01
 0.37501250261E+01 0.38198088787E+01 0.39505429078E+01 0.48839276611E+01 0.54194940189E+01
 0.59695833656E+01 0.64996875399E+01 0.69614950170E+01 0.72812993567E+01 0.73960467134E+01
 0.72813004009E+01 0.69615067718E+01 0.64997200681E+01 0.59696376050E+01 0.54195531897E+01
 0.48839687084E+01 0.44109442157E+01 0.40305832600E+01 0.37500893115E+01 0.35586280470E+01
 0.34364607773E+01 0.33636669752E+01 0.33254486129E+01 0.33135484743E+01 0.33254355896E+01
 0.33636539903E+01 0.34364625718E+01 0.35586497014E+01 0.37501200474E+01 0.40306004211E+01
 0.44109332416E+01 0.62348498708E+01 0.71705258796E+01 0.81986688053E+01 0.91951896387E+01
 0.99916021899E+01 0.10434695560E+02 0.10434701277E+02 0.99915910534E+01 0.91951568993E+01
 0.81986955023E+01 0.71706491488E+01 0.62349731111E+01 0.54195410836E+01 0.47114019398E+01
 0.41440318410E+01 0.37248572287E+01 0.34364486712E+01 0.32511241739E+01 0.31428147188E+01
 0.30931620554E+01 0.30931252377E+01 0.31427619264E+01 0.32511204316E+01 0.34364597324E+01
 0.37248382464E+01 0.41440214986E+01 0.47114232111E+01 0.54195123328E+01 0.87111626587E+01
 0.10519464674E+02 0.12378026054E+02 0.13997753745E+02 0.15101281367E+02 0.15492570422E+02
 0.15101257196E+02 0.13997721454E+02 0.12378008750E+02 0.10519476170E+02 0.87112013640E+01
 0.71706500856E+01 0.59696230185E+01 0.50170042075E+01 0.42668372528E+01 0.37249009812E+01
 0.33636523886E+01 0.31427895697E+01 0.30260985426E+01 0.29899042423E+01 0.30260928266E+01
 0.31427814596E+01 0.33636458213E+01 0.37248928190E+01 0.42668209838E+01 0.50169719147E+01
 0.59695736738E+01 0.71705989444E+01 0.13350717247E+02 0.16377667994E+02 0.19178494747E+02
 0.21330200953E+02 0.22497968481E+02 0.22497966984E+02 0.21330185366E+02 0.19178448616E+02
 0.16377599677E+02 0.13350656198E+02 0.10519489549E+02 0.81987072724E+01 0.64997197320E+01
 0.52889945831E+01 0.43746639171E+01 0.37338839821E+01 0.33254482769E+01 0.30931502853E+01
 0.29898915354E+01 0.29898902879E+01 0.30931559174E+01 0.33254705894E+01 0.37339040876E+01
 0.43746550370E+01 0.52889522379E+01 0.64996737830E+01 0.81986904787E+01 0.10519514684E+02
 0.20794351602E+02 0.25078480133E+02 0.28655089874E+02 0.31027394668E+02 0.31858098041E+02
 0.31027393674E+02 0.28655077626E+02 0.25078443873E+02 0.20794290167E+02 0.16377600013E+02
 0.12378034296E+02 0.91951690054E+01 0.69614958115E+01 0.54920497363E+01 0.44477208548E+01
 0.37409620446E+01 0.33135375140E+01 0.30931373438E+01 0.30261183735E+01 0.30931562535E+01
 0.33135615836E+01 0.37409739120E+01 0.44477152003E+01 0.54920358147E+01 0.69614959704E+01
 0.91951978463E+01 0.12378092615E+02 0.16377672086E+02 0.31045311989E+02 0.36366209404E+02
 0.40371064127E+02 0.42524796558E+02 0.42524730941E+02 0.40371028709E+02 0.36366347172E+02
 0.31045414059E+02 0.25078399553E+02 0.19178404631E+02 0.13997752732E+02 0.99916232680E+01
 0.72812560802E+01 0.56003311128E+01 0.44734861230E+01 0.37410124915E+01 0.33253912688E+01
 0.31427297117E+01 0.31428388233E+01 0.33255145741E+01 0.37409295912E+01 0.44733707118E+01
 0.56003978842E+01 0.72813618935E+01 0.99915904959E+01 0.13997738300E+02 0.19178559025E+02
 0.25078520381E+02 0.43653869988E+02 0.49688190090E+02 0.53697793023E+02 0.55106717687E+02
 0.53697857013E+02 0.49688286124E+02 0.43653955410E+02 0.36366413067E+02 0.28655052079E+02
 0.21330074815E+02 0.15101257196E+02 0.10434799387E+02 0.73960321269E+01 0.56002513633E+01
 0.44476916910E+01 0.37340083674E+01 0.33636394038E+01 0.32509981100E+01 0.33636458213E+01
 0.37340139670E+01 0.44476896534E+01 0.56002433479E+01 0.73960298652E+01 0.10434813924E+02
 0.15101289450E+02 0.21330105625E+02 0.28655054972E+02 0.36366369529E+02 0.58048496726E+02
 0.64444553711E+02 0.67937576732E+02 0.67937810670E+02 0.64444809838E+02 0.58048331084E+02
 0.49688280119E+02 0.40371189250E+02 0.31027509895E+02 0.22497850428E+02 0.15492467245E+02
 0.10434823886E+02 0.72814155773E+01 0.54919000421E+01 0.43745448507E+01 0.37250220913E+01
 0.34365787923E+01 0.34363314057E+01 0.37247635555E+01 0.43747715936E+01 0.54921520352E+01
 0.72812013522E+01 0.10434587488E+02 0.15492682595E+02 0.22498065061E+02 0.31027246236E+02
 0.40370890172E+02 0.49688423742E+02 0.73607642579E+02 0.79866491336E+02 0.82101533717E+02
 0.79866475000E+02 0.73607626207E+02 0.64444693618E+02 0.53697637228E+02 0.42524775262E+02
 0.31858343373E+02 0.22497968817E+02 0.15101061582E+02 0.99916142961E+01 0.69617293886E+01
 0.52889607425E+01 0.42666233890E+01 0.37248687962E+01 0.35588840730E+01 0.37248503526E+01
 0.42666011987E+01 0.52889525740E+01 0.69617413024E+01 0.99916348166E+01 0.15101069665E+02
 0.22497948840E+02 0.31858298428E+02 0.42524724478E+02 0.53697603764E+02 0.64444689698E+02
 0.89318555641E+02 0.94607188851E+02 0.94606795640E+02 0.89318121744E+02 0.79866666330E+02
 0.67937885780E+02 0.55106416141E+02 0.42524560907E+02 0.31027585999E+02 0.21330392620E+02
 0.13997549372E+02 0.91949862022E+01 0.64998788703E+01 0.50171971153E+01 0.41438491483E+01
 0.37499279291E+01 0.37503113778E+01 0.41442249351E+01 0.50167936274E+01 0.64994821166E+01
 0.91953891766E+01 0.13997973951E+02 0.21330024510E+02 0.31027171126E+02 0.42524915808E+02
 0.55106841492E+02 0.67937611349E+02 0.79866388222E+02 0.10338032017E+03 0.10655769170E+03
 0.10338019444E+03 0.94606675717E+02 0.82101753502E+02 0.67938004206E+02 0.53697793023E+02
 0.40370708553E+02 0.28655064327E+02 0.19178805665E+02 0.12378026054E+02 0.81983454454E+01
 0.59695687791E+01 0.47117416772E+01 0.40306060596E+01 0.38194918583E+01 0.40305858346E+01
 0.47117223587E+01 0.59695736738E+01 0.81983788889E+01 0.12378067069E+02 0.19178825958E+02
 0.28655054972E+02 0.40370695139E+02 0.53697823549E+02 0.67938113933E+02 0.82101934948E+02
 0.94606869827E+02 0.11333996769E+03 0.11334035349E+03 0.10655761907E+03 0.94606758892E+02
 0.79866252708E+02 0.64444908560E+02 0.49688538934E+02 0.36366015096E+02 0.25078241505E+02
 0.16377906286E+02 0.10519716345E+02 0.71702993573E+01 0.54192553905E+01 0.44112108361E+01
 0.39508132457E+01 0.39503100460E+01 0.44106946132E+01 0.54197388551E+01 0.71708245299E+01
 0.10519276392E+02 0.16377433457E+02 0.25078714689E+02 0.36366497942E+02 0.49688068893E+02
 0.64444451069E+02 0.79866818181E+02 0.94607419709E+02 0.10655734664E+03 0.11333996769E+03
 0.10655734664E+03 0.94607419709E+02 0.79866818181E+02 0.64444451069E+02 0.49688068893E+02
 0.36366497942E+02 0.25078714689E+02 0.16377433457E+02 0.10519276392E+02 0.71708245299E+01
 0.54197388551E+01 0.44106946132E+01 0.39503100460E+01 0.39508132457E+01 0.44112108361E+01
 0.54192553905E+01 0.71702993573E+01 0.10519716345E+02 0.16377906286E+02 0.25078241505E+02
 0.36366015096E+02 0.49688538934E+02 0.64444908560E+02 0.79866252708E+02 0.94606758892E+02
 0.10655761907E+03 0.11334035349E+03 0.10655759110E+03 0.97398311689E+02 0.84388874240E+02
 0.69726824562E+02 0.55065909818E+02 0.41402585229E+02 0.29408466536E+02 0.19690826733E+02
 0.12688705198E+02 0.83645610536E+01 0.60588375580E+01 0.47719114563E+01 0.40737263346E+01
 0.38570532103E+01 0.40737348299E+01 0.47719259145E+01 0.60588367505E+01 0.83645198917E+01
 0.12688635917E+02 0.19690778757E+02 0.29408477932E+02 0.41402636079E+02 0.55065927211E+02
 0.69726721165E+02 0.84388610527E+02 0.97397964275E+02 0.10655733834E+03 0.10988039241E+03
 0.94607389298E+02 0.84388672043E+02 0.71598230282E+02 0.57974447105E+02 0.44727071401E+02
 0.32670103919E+02 0.22484390438E+02 0.14731787509E+02 0.96060426904E+01 0.67132139957E+01
 0.51517997652E+01 0.42367970818E+01 0.38221931473E+01 0.38217768568E+01 0.42363875205E+01
 0.51522318797E+01 0.67136318204E+01 0.96055836168E+01 0.14731301240E+02 0.22484777833E+02
 0.32670571942E+02 0.44726721857E+02 0.57973988954E+02 0.71598449402E+02 0.84388815878E+02
 0.94606754344E+02 0.10035415825E+03 0.10035465518E+03 0.79866823831E+02 0.69726502171E+02
 0.57973995776E+02 0.45889512575E+02 0.34422604961E+02 0.24347484010E+02 0.16319858576E+02
 0.10702698351E+02 0.73355137441E+01 0.55089060707E+01 0.44142727455E+01 0.38303619308E+01
 0.36509752271E+01 0.38303929010E+01 0.44143011835E+01 0.55089061642E+01 0.73354910005E+01
 0.10702673530E+02 0.16319850455E+02 0.24347502264E+02 0.34422641357E+02 0.45889532474E+02
 0.57973961934E+02 0.69726417482E+02 0.79866729874E+02 0.86858471447E+02 0.89367769280E+02
 0.86858529666E+02 0.64444827171E+02 0.55066045144E+02 0.44726726906E+02 0.34422220718E+02
 0.25001257482E+02 0.17188250623E+02 0.11457950884E+02 0.78317419661E+01 0.58002064910E+01
 0.45794666476E+01 0.38630117296E+01 0.35436376884E+01 0.35439361500E+01 0.38633277227E+01
 0.45792037646E+01 0.57999103388E+01 0.78319978161E+01 0.11458228622E+02 0.17187989715E+02
 0.25001001381E+02 0.34422536787E+02 0.44727073825E+02 0.55065838444E+02 0.64444574393E+02
 0.71702591710E+02 0.75698586234E+02 0.75698328461E+02 0.71702338208E+02 0.49688310665E+02
 0.41403048628E+02 0.32670308511E+02 0.24347342707E+02 0.17188112608E+02 0.11727592845E+02
 0.81091027686E+01 0.59932074735E+01 0.47051383671E+01 0.39014295641E+01 0.34819965222E+01
 0.33541649715E+01 0.34820031033E+01 0.39014374466E+01 0.47051419065E+01 0.59932026829E+01
 0.81090895337E+01 0.11727577780E+02 0.17188111466E+02 0.24347371094E+02 0.32670367444E+02
 0.41403124594E+02 0.49688385374E+02 0.56604842854E+02 0.61238742169E+02 0.62875207611E+02
 0.61238710114E+02 0.56604784018E+02 0.36366196024E+02 0.29408531172E+02 0.22484660501E+02
 0.16320041628E+02 0.11458023872E+02 0.81091650099E+01 0.60616608821E+01 0.47728937454E+01
 0.39299356955E+01 0.34493362696E+01 0.32377392744E+01 0.32376002535E+01 0.34491885071E+01
 0.39300583171E+01 0.47730367562E+01 0.60615457316E+01 0.81090233237E+01 0.11458112195E+02
 0.16320123862E+02 0.22484498705E+02 0.29408392656E+02 0.36366357603E+02 0.42570808952E+02
 0.47257240775E+02 0.49787401963E+02 0.49787480619E+02 0.47257261546E+02 0.42570591790E+02
 0.25078426249E+02 0.19690501506E+02 0.14731628380E+02 0.10702699296E+02 0.78318321178E+01
 0.59933459407E+01 0.47730028934E+01 0.39405100224E+01 0.34352021146E+01 0.31750303302E+01
 0.30960903064E+01 0.31750092267E+01 0.34351809366E+01 0.39405096231E+01 0.47730235815E+01
 0.59933643698E+01 0.78318152249E+01 0.10702630852E+02 0.14731522569E+02 0.19690406083E+02
 0.25078387853E+02 0.30253622860E+02 0.34555661416E+02 0.37406620996E+02 0.38405188229E+02
 0.37406572484E+02 0.34555598068E+02 0.30253594341E+02 0.16377662140E+02 0.12688691073E+02
 0.96058439937E+01 0.73352773308E+01 0.58000590722E+01 0.47051269322E+01 0.39300085056E+01
 0.34352597921E+01 0.31553118247E+01 0.30317432857E+01 0.30317586748E+01 0.31553181143E+01
 0.34352227917E+01 0.39299802569E+01 0.47051565652E+01 0.58000975843E+01 0.73352558630E+01
 0.96057833317E+01 0.12688636889E+02 0.16377603132E+02 0.20252700873E+02 0.23793782648E+02
 0.26493933333E+02 0.27953971308E+02 0.27953955213E+02 0.26493926376E+02 0.23793833621E+02
 0.20252778193E+02 0.10519518700E+02 0.83648899919E+01 0.67134171359E+01 0.55088983133E+01
 0.45793291691E+01 0.39012951035E+01 0.34492725765E+01 0.31750254082E+01 0.30317552570E+01
 0.29876885458E+01 0.30317523250E+01 0.31750195079E+01 0.34492615413E+01 0.39012855469E+01
 0.45793387238E+01 0.55089423625E+01 0.67134724806E+01 0.83649149588E+01 0.10519491249E+02
 0.13018838311E+02 0.15546389254E+02 0.17720252864E+02 0.19188636608E+02 0.19707169433E+02
 0.19188657725E+02 0.17720298860E+02 0.15546455514E+02 0.13018902873E+02 0.71705748285E+01
 0.60588506927E+01 0.51520174499E+01 0.44145071380E+01 0.38631369344E+01 0.34820072620E+01
 0.32376868962E+01 0.30960324983E+01 0.30317380814E+01 0.30317645167E+01 0.30960646714E+01
 0.32376759271E+01 0.34819918925E+01 0.38631667104E+01 0.44145475469E+01 0.51520361866E+01
 0.60588879071E+01 0.71706517266E+01 0.85324114028E+01 0.10045566737E+02 0.11502038990E+02
 0.12655086346E+02 0.13292289330E+02 0.13292278074E+02 0.12655090155E+02 0.11502083166E+02
 0.10045588277E+02 0.85323573819E+01 0.54194796451E+01 0.47715867464E+01 0.42366090666E+01
 0.38303627038E+01 0.35437570703E+01 0.33543039551E+01 0.32376805155E+01 0.31750090546E+01
 0.31552896670E+01 0.31750249462E+01 0.32377048492E+01 0.33543262229E+01 0.35437648128E+01
 0.38303517525E+01 0.42365923127E+01 0.47715941032E+01 0.54195379644E+01 0.61403644614E+01
 0.69251809433E+01 0.77328581754E+01 0.84531886735E+01 0.89547916448E+01 0.91348558303E+01
 0.89548135734E+01 0.84532017706E+01 0.77328287278E+01 0.69251031987E+01 0.61402724909E+01
 0.44109243335E+01 0.40737134896E+01 0.38219939121E+01 0.36507380339E+01 0.35437897690E+01
 0.34819929476E+01 0.34492607787E+01 0.34352378341E+01 0.34352238294E+01 0.34492508493E+01
 0.34820119474E+01 0.35437924801E+01 0.36506870491E+01 0.38219395135E+01 0.40737144934E+01
 0.44109553458E+01 0.48207455560E+01 0.52707530288E+01 0.57144508001E+01 0.61089474913E+01
 0.64149937670E+01 0.65843642437E+01 0.65843812400E+01 0.64150062878E+01 0.61089134338E+01
 0.57143997202E+01 0.52707268514E+01 0.48207264952E+01 0.39505524598E+01 0.38573706594E+01
 0.38219802694E+01 0.38303970104E+01 0.38631903494E+01 0.39012914968E+01 0.39299948964E+01
 0.39405165678E+01 0.39299923334E+01 0.39012740577E+01 0.38631547912E+01 0.38303581809E+01
 0.38219503107E+01 0.38573458791E+01 0.39505261400E+01 0.41044838362E+01 0.43083179898E+01
 0.45384502394E+01 0.47636265230E+01 0.49517499580E+01 0.50761227882E+01 0.51195313609E+01
 0.50760990988E+01 0.49517269077E+01 0.47636246605E+01 0.45384710293E+01 0.43083483914E+01
 0.41045138184E+01 0.39505727051E+01 0.40737388606E+01 0.42365961824E+01 0.44145448179E+01
 0.45793381302E+01 0.47051435424E+01 0.47729753550E+01 0.47729750153E+01 0.47051451326E+01
 0.45793418114E+01 0.44145385240E+01 0.42365726326E+01 0.40737035993E+01 0.39505289552E+01
 0.38821492919E+01 0.38708338362E+01 0.39064712062E+01 0.39704612247E+01 0.40413345912E+01
 0.40999366250E+01 0.41326686724E+01 0.41326714068E+01 0.40999376955E+01 0.40413303948E+01
 0.39704695011E+01 0.39065077409E+01 0.38708898934E+01 0.38822036164E+01 0.44109580349E+01
 0.47716011014E+01 0.51520373870E+01 0.55089069716E+01 0.58000361293E+01 0.59933415632E+01
 0.60616195161E+01 0.59933642320E+01 0.58000755457E+01 0.55089476977E+01 0.51520586313E+01
 0.47715941376E+01 0.44109340872E+01 0.41044773047E+01 0.38708470389E+01 0.37115243741E+01
 0.36148816951E+01 0.35630758059E+01 0.35386701088E+01 0.35287852691E+01 0.35262291175E+01
 0.35287895922E+01 0.35386761887E+01 0.35630846247E+01 0.36148960286E+01 0.37115469760E+01
 0.38708745706E+01 0.41045056220E+01 0.54194828604E+01 0.60588215071E+01 0.67134346877E+01
 0.73352560577E+01 0.78318491846E+01 0.81090769797E+01 0.81090976979E+01 0.78318743728E+01
 0.73352546503E+01 0.67134593903E+01 0.60589100646E+01 0.54195678821E+01 0.48207433056E+01
 0.43083047943E+01 0.39064842029E+01 0.36149052041E+01 0.34169882443E+01 0.32907635773E+01
 0.32170388100E+01 0.31831127468E+01 0.31830797413E+01 0.32169939320E+01 0.32907710937E+01
 0.34170162051E+01 0.36149049024E+01 0.39064793076E+01 0.43083212567E+01 0.48207287456E+01
 0.71705419002E+01 0.83648261139E+01 0.96057868315E+01 0.10702688797E+02 0.11458091378E+02
 0.11727420603E+02 0.11458048577E+02 0.10702648955E+02 0.96057955373E+01 0.83648922428E+01
 0.71706396094E+01 0.61403820478E+01 0.52707639551E+01 0.45384390126E+01 0.39704582116E+01
 0.35630934954E+01 0.32907769019E+01 0.31223772346E+01 0.30320506574E+01 0.30037228905E+01
 0.30320310398E+01 0.31223454145E+01 0.32907529500E+01 0.35630970441E+01 0.39704786690E+01
 0.45384425279E+01 0.52707177863E+01 0.61402918797E+01 0.10519485173E+02 0.12688631073E+02
 0.14731500671E+02 0.16320103101E+02 0.17188133449E+02 0.17188104228E+02 0.16320053230E+02
 0.14731483014E+02 0.12688634825E+02 0.10519485463E+02 0.85323931490E+01 0.69251702750E+01
 0.57144492747E+01 0.47636204643E+01 0.40413253603E+01 0.35386659180E+01 0.32170351821E+01
 0.30320447966E+01 0.29488290395E+01 0.29488407109E+01 0.30320533929E+01 0.32170181569E+01
 0.35386497396E+01 0.40413307043E+01 0.47636118410E+01 0.57143974619E+01 0.69251166757E+01
 0.85323756357E+01 0.16377657697E+02 0.19690454510E+02 0.22484579507E+02 0.24347502883E+02
 0.25001131383E+02 0.24347510541E+02 0.22484568656E+02 0.19690405756E+02 0.16377585305E+02
 0.13018844213E+02 0.10045585348E+02 0.77328580210E+01 0.61089304440E+01 0.49517439928E+01
 0.40999459940E+01 0.35287850803E+01 0.31830934491E+01 0.30037057673E+01 0.29488410680E+01
 0.30037178906E+01 0.31831175604E+01 0.35288078559E+01 0.40999463192E+01 0.49517143690E+01
 0.61088906646E+01 0.77328414221E+01 0.10045609084E+02 0.13018906354E+02 0.25078455466E+02
 0.29408449937E+02 0.32670388817E+02 0.34422419664E+02 0.34422374647E+02 0.32670342139E+02
 0.29408481037E+02 0.25078460252E+02 0.20252686152E+02 0.15546363412E+02 0.11502075155E+02
 0.84532318419E+01 0.64149780081E+01 0.50760968413E+01 0.41326956768E+01 0.35262658773E+01
 0.31830662328E+01 0.30320049637E+01 0.30320710286E+01 0.31831501088E+01 0.35262367591E+01
 0.41326409065E+01 0.50761300050E+01 0.64150252102E+01 0.84532039370E+01 0.11502066478E+02
 0.15546467626E+02 0.20252792914E+02 0.36366257106E+02 0.41402884319E+02 0.44726925949E+02
 0.45889606067E+02 0.44726936048E+02 0.41402909436E+02 0.36366294862E+02 0.30253699289E+02
 0.23793794321E+02 0.17720172166E+02 0.12655075106E+02 0.89548675574E+01 0.65843746371E+01
 0.51194621522E+01 0.41326692709E+01 0.35288656080E+01 0.32170067237E+01 0.31222874326E+01
 0.32170248949E+01 0.35288833053E+01 0.41326664496E+01 0.51194399546E+01 0.65843640347E+01
 0.89548972765E+01 0.12655138403E+02 0.17720227591E+02 0.23793805731E+02 0.30253671884E+02
 0.49688387805E+02 0.55065840964E+02 0.57974108181E+02 0.57974295822E+02 0.55066062220E+02
 0.49688296732E+02 0.42570658117E+02 0.34555703104E+02 0.26494011311E+02 0.19188549418E+02
 0.13292190873E+02 0.91349264039E+01 0.65844597567E+01 0.50760116366E+01 0.40998482610E+01
 0.35387532398E+01 0.32908475078E+01 0.32906656857E+01 0.35385695360E+01 0.41000272041E+01
 0.50761924115E+01 0.65842758933E+01 0.91347382092E+01 0.13292376246E+02 0.19188755379E+02
 0.26493844423E+02 0.34555479831E+02 0.42570742626E+02 0.64444844817E+02 0.69726395545E+02
 0.71598065313E+02 0.69726418558E+02 0.64444889241E+02 0.56604980927E+02 0.47257124964E+02
 0.37406621127E+02 0.27954138328E+02 0.19707173962E+02 0.13292110923E+02 0.89548138767E+01
 0.64151740871E+01 0.49517195694E+01 0.40411540018E+01 0.35630848937E+01 0.34171817540E+01
 0.35630785478E+01 0.40411452995E+01 0.49517148267E+01 0.64151775083E+01 0.89548204540E+01
 0.13292109599E+02 0.19707153989E+02 0.27954097534E+02 0.37406564965E+02 0.47257061221E+02
 0.56604921503E+02 0.79866655744E+02 0.84388770396E+02 0.84388442059E+02 0.79866318697E+02
 0.71702618644E+02 0.61238904727E+02 0.49787299650E+02 0.38405071143E+02 0.27954129566E+02
 0.19188819747E+02 0.12654935625E+02 0.84530554545E+01 0.61090867491E+01 0.47637865774E+01
 0.39703058107E+01 0.36147433038E+01 0.36150804681E+01 0.39706404568E+01 0.47634387818E+01
 0.61087337285E+01 0.84533930112E+01 0.12655300723E+02 0.19188502278E+02 0.27953755751E+02
 0.38405330710E+02 0.49787590095E+02 0.61238582979E+02 0.71702311274E+02 0.94607000591E+02
 0.97398566852E+02 0.94606956857E+02 0.86858188813E+02 0.75698448145E+02 0.62875346789E+02
 0.49787416299E+02 0.37406292686E+02 0.26493937737E+02 0.17720572498E+02 0.11502070346E+02
 0.77325484134E+01 0.57144098025E+01 0.45387561572E+01 0.39065040258E+01 0.37112667648E+01
 0.39064917881E+01 0.45387388827E+01 0.57144026207E+01 0.77325606445E+01 0.11502091711E+02
 0.17720581928E+02 0.26493930986E+02 0.37406285560E+02 0.49787427463E+02 0.62875382500E+02
 0.75698503954E+02 0.86858251927E+02 0.10655715587E+03 0.10655756306E+03 0.10035458810E+03
 0.89367790760E+02 0.75698240171E+02 0.61238932437E+02 0.47257421334E+02 0.34555327347E+02
 0.23793599533E+02 0.15546679289E+02 0.10045800443E+02 0.69248613637E+01 0.52704933014E+01
 0.43085718940E+01 0.38711110817E+01 0.38706392131E+01 0.43080856042E+01 0.52709414868E+01
 0.69253470948E+01 0.10045377560E+02 0.15546217966E+02 0.23794028554E+02 0.34555790454E+02
 0.47257015459E+02 0.61238524014E+02 0.75698728356E+02 0.89368307141E+02 0.10035422533E+03
 0.11333977432E+03 0.10988006635E+03 0.10035478622E+03 0.86858530890E+02 0.71702137628E+02
 0.56604921650E+02 0.42570991113E+02 0.30253594620E+02 0.20252429784E+02 0.13018906959E+02
 0.85327053644E+01 0.61402729415E+01 0.48203788663E+01 0.41045060382E+01 0.38825423570E+01
 0.41045060382E+01 0.48203788663E+01 0.61402729415E+01 0.85327053644E+01 0.13018906959E+02
 0.20252429784E+02 0.30253594620E+02 0.42570991113E+02 0.56604921650E+02 0.71702137628E+02
 0.86858530890E+02 0.10035478622E+03 0.10988006635E+03 0.10338032017E+03 0.94606869827E+02
 0.82101934948E+02 0.67938113933E+02 0.53697823549E+02 0.40370695139E+02 0.28655054972E+02
 0.19178825958E+02 0.12378067069E+02 0.81983788889E+01 0.59695736738E+01 0.47117223587E+01
 0.40305858346E+01 0.38194918583E+01 0.40306060596E+01 0.47117416772E+01 0.59695687791E+01
 0.81983454454E+01 0.12378026054E+02 0.19178805665E+02 0.28655064327E+02 0.40370708553E+02
 0.53697793023E+02 0.67938004206E+02 0.82101753502E+02 0.94606675717E+02 0.10338019444E+03
 0.10655769170E+03 0.94607389298E+02 0.84388672043E+02 0.71598230282E+02 0.57974447105E+02
 0.44727071401E+02 0.32670103919E+02 0.22484390438E+02 0.14731787509E+02 0.96060426904E+01
 0.67132139957E+01 0.51517997652E+01 0.42367970818E+01 0.38221931473E+01 0.38217768568E+01
 0.42363875205E+01 0.51522318797E+01 0.67136318204E+01 0.96055836168E+01 0.14731301240E+02
 0.22484777833E+02 0.32670571942E+02 0.44726721857E+02 0.57973988954E+02 0.71598449402E+02
 0.84388815878E+02 0.94606754344E+02 0.10035415825E+03 0.10035465518E+03 0.82102191900E+02
 0.71598437032E+02 0.59476635589E+02 0.47064040613E+02 0.35315990400E+02 0.24994173001E+02