   1   1   0   0
  0.1513295E+02  0.2776384E-09  0.2776384E-09  0.2776384E-09  0.5000000E-15
  1.000000000000000E-004
  CAR 
 unknown system                          
     33.40441162     -0.35150046  301     10.18704386      1.00000000
     -0.352  0.0000E+00  0.0000E+00
     -0.239  0.0000E+00  0.0000E+00
     -0.126  0.0000E+00  0.0000E+00
     -0.014 -0.5345E-32 -0.6014E-33
      0.099 -0.4187E-28 -0.4712E-29
      0.211 -0.1732E-24 -0.1950E-25
      0.324 -0.3782E-21 -0.4258E-22
      0.436 -0.4352E-18 -0.4901E-19
      0.549 -0.2549E-15 -0.2873E-16
      0.661 -0.8039E-13 -0.9075E-14
      0.774 -0.1323E-10 -0.1497E-11
      0.886 -0.1127E-08 -0.1283E-09
      0.999 -0.4913E-07 -0.5657E-08
      1.111 -0.1070E-05 -0.1261E-06
      1.224 -0.1104E-04 -0.1369E-05
      1.336 -0.4551E-04 -0.6489E-05
      1.449 -0.2738E-05 -0.6797E-05
      1.561  0.4168E-03  0.4010E-04
      1.674  0.8899E-03  0.1402E-03
      1.786  0.7583E-03  0.2256E-03
      1.899  0.1308E-02  0.3728E-03
      2.011  0.2771E-02  0.6846E-03
      2.124  0.2590E-02  0.9760E-03
      2.236  0.2074E-02  0.1209E-02
      2.349  0.2771E-02  0.1521E-02
      2.461  0.2657E-02  0.1820E-02
      2.574  0.2917E-02  0.2148E-02
      2.687  0.3435E-02  0.2535E-02
      2.799  0.3919E-02  0.2976E-02
      2.912  0.7989E-02  0.3875E-02
      3.024  0.1570E-01  0.5642E-02
      3.137  0.2856E-01  0.8856E-02
      3.249  0.4608E-01  0.1404E-01
      3.362  0.6372E-01  0.2121E-01
      3.474  0.8400E-01  0.3066E-01
      3.587  0.9957E-01  0.4187E-01
      3.699  0.9784E-01  0.5288E-01
      3.812  0.8800E-01  0.6278E-01
      3.924  0.7745E-01  0.7149E-01
      4.037  0.6564E-01  0.7888E-01
      4.149  0.5687E-01  0.8528E-01
      4.262  0.6050E-01  0.9208E-01
      4.374  0.6945E-01  0.9990E-01
      4.487  0.7094E-01  0.1079E+00
      4.599  0.6674E-01  0.1154E+00
      4.712  0.6514E-01  0.1227E+00
      4.824  0.7061E-01  0.1307E+00
      4.937  0.7905E-01  0.1396E+00
      5.049  0.9265E-01  0.1500E+00
      5.162  0.1082E+00  0.1622E+00
      5.274  0.1145E+00  0.1750E+00
      5.387  0.1026E+00  0.1866E+00
      5.500  0.7819E-01  0.1954E+00
      5.612  0.6938E-01  0.2032E+00
      5.725  0.7627E-01  0.2118E+00
      5.837  0.7306E-01  0.2200E+00
      5.950  0.6807E-01  0.2276E+00
      6.062  0.7795E-01  0.2364E+00
      6.175  0.9060E-01  0.2466E+00
      6.287  0.8749E-01  0.2565E+00
      6.400  0.7487E-01  0.2649E+00
      6.512  0.7330E-01  0.2731E+00
      6.625  0.6772E-01  0.2808E+00
      6.737  0.6054E-01  0.2876E+00
      6.850  0.7458E-01  0.2960E+00
      6.962  0.9083E-01  0.3062E+00
      7.075  0.1021E+00  0.3177E+00
      7.187  0.1056E+00  0.3295E+00
      7.300  0.7964E-01  0.3385E+00
      7.412  0.4232E-01  0.3433E+00
      7.525  0.2178E-01  0.3457E+00
      7.637  0.1571E-01  0.3475E+00
      7.750  0.1276E-01  0.3489E+00
      7.862  0.7064E-02  0.3497E+00
      7.975  0.2895E-02  0.3500E+00
      8.087  0.2266E-02  0.3503E+00
      8.200  0.1819E-02  0.3505E+00
      8.313  0.3589E-02  0.3509E+00
      8.425  0.7347E-02  0.3517E+00
      8.538  0.8868E-02  0.3527E+00
      8.650  0.1070E-01  0.3539E+00
      8.763  0.1374E-01  0.3555E+00
      8.875  0.1064E-01  0.3567E+00
      8.988  0.4293E-02  0.3572E+00
      9.100  0.5446E-02  0.3578E+00
      9.213  0.8841E-02  0.3588E+00
      9.325  0.5252E-02  0.3594E+00
      9.438  0.1120E-03  0.3594E+00
      9.550 -0.7604E-03  0.3593E+00
      9.663  0.4436E-02  0.3598E+00
      9.775  0.1675E-01  0.3617E+00
      9.888  0.2279E-01  0.3642E+00
     10.000  0.1268E-01  0.3657E+00
     10.113  0.4795E-02  0.3662E+00
     10.225  0.6824E-02  0.3670E+00
     10.338  0.7091E-02  0.3678E+00
     10.450  0.5465E-02  0.3684E+00
     10.563  0.5861E-02  0.3690E+00
     10.675  0.4538E-02  0.3695E+00
     10.788  0.3566E-02  0.3699E+00
     10.900  0.6712E-02  0.3707E+00
     11.013  0.1147E-01  0.3720E+00
     11.126  0.1154E-01  0.3733E+00
     11.238  0.6382E-02  0.3740E+00
     11.351  0.5714E-02  0.3747E+00
     11.463  0.1435E-01  0.3763E+00
     11.576  0.1966E-01  0.3785E+00
     11.688  0.1334E-01  0.3800E+00
     11.801  0.4292E-02  0.3805E+00
     11.913  0.3579E-03  0.3805E+00
     12.026  0.2388E-02  0.3808E+00
     12.138  0.5829E-02  0.3814E+00
     12.251  0.4020E-02  0.3819E+00
     12.363  0.5887E-03  0.3819E+00
     12.476  0.5203E-02  0.3825E+00
     12.588  0.1675E-01  0.3844E+00
     12.701  0.2059E-01  0.3867E+00
     12.813  0.1193E-01  0.3881E+00
     12.926  0.3046E-02  0.3884E+00
     13.038  0.1326E-02  0.3886E+00
     13.151  0.2526E-02  0.3889E+00
     13.263  0.4997E-02  0.3894E+00
     13.376  0.9655E-02  0.3905E+00
     13.488  0.1108E-01  0.3917E+00
     13.601  0.7728E-02  0.3926E+00
     13.713  0.3097E-02  0.3930E+00
     13.826  0.2456E-02  0.3932E+00
     13.939  0.5469E-02  0.3939E+00
     14.051  0.5029E-02  0.3944E+00
     14.164  0.2603E-02  0.3947E+00
     14.276  0.2297E-02  0.3950E+00
     14.389  0.2589E-02  0.3953E+00
     14.501  0.6143E-02  0.3960E+00
     14.614  0.1351E-01  0.3975E+00
     14.726  0.1745E-01  0.3994E+00
     14.839  0.1331E-01  0.4009E+00
     14.951  0.7017E-02  0.4017E+00
     15.064  0.6977E-02  0.4025E+00
     15.176  0.8591E-02  0.4035E+00
     15.289  0.9454E-02  0.4045E+00
     15.401  0.1289E-01  0.4060E+00
     15.514  0.1317E-01  0.4075E+00
     15.626  0.1059E-01  0.4087E+00
     15.739  0.7369E-02  0.4095E+00
     15.851  0.6841E-02  0.4103E+00
     15.964  0.1202E-01  0.4116E+00
     16.076  0.1691E-01  0.4135E+00
     16.189  0.1500E-01  0.4152E+00
     16.301  0.6322E-02  0.4159E+00
     16.414 -0.7236E-04  0.4159E+00
     16.526  0.7711E-03  0.4160E+00
     16.639  0.5961E-02  0.4167E+00
     16.751  0.1273E-01  0.4181E+00
     16.864  0.1768E-01  0.4201E+00
     16.977  0.1359E-01  0.4216E+00
     17.089  0.5936E-02  0.4223E+00
     17.202  0.6779E-02  0.4231E+00
     17.314  0.1083E-01  0.4243E+00
     17.427  0.9812E-02  0.4254E+00
     17.539  0.8120E-02  0.4263E+00
     17.652  0.6901E-02  0.4271E+00
     17.764  0.3500E-02  0.4275E+00
     17.877  0.1303E-02  0.4276E+00
     17.989  0.5027E-02  0.4282E+00
     18.102  0.1287E-01  0.4296E+00
     18.214  0.1971E-01  0.4318E+00
     18.327  0.1973E-01  0.4341E+00
     18.439  0.1145E-01  0.4353E+00
     18.552  0.1054E-01  0.4365E+00
     18.664  0.2422E-01  0.4393E+00
     18.777  0.3062E-01  0.4427E+00
     18.889  0.1716E-01  0.4446E+00
     19.002  0.5061E-02  0.4452E+00
     19.114  0.7793E-02  0.4461E+00
     19.227  0.1399E-01  0.4477E+00
     19.339  0.1150E-01  0.4489E+00
     19.452  0.5487E-02  0.4496E+00
     19.564  0.8584E-02  0.4505E+00
     19.677  0.1590E-01  0.4523E+00
     19.790  0.1648E-01  0.4542E+00
     19.902  0.1818E-01  0.4562E+00
     20.015  0.2178E-01  0.4587E+00
     20.127  0.1486E-01  0.4603E+00
     20.240  0.4689E-02  0.4609E+00
     20.352  0.3597E-02  0.4613E+00
     20.465  0.8585E-02  0.4622E+00
     20.577  0.1946E-01  0.4644E+00
     20.690  0.3325E-01  0.4682E+00
     20.802  0.2933E-01  0.4715E+00
     20.915  0.1258E-01  0.4729E+00
     21.027  0.8963E-02  0.4739E+00
     21.140  0.1400E-01  0.4755E+00
     21.252  0.1203E-01  0.4768E+00
     21.365  0.7326E-02  0.4776E+00
     21.477  0.1424E-01  0.4793E+00
     21.590  0.2922E-01  0.4825E+00
     21.702  0.3037E-01  0.4860E+00
     21.815  0.1891E-01  0.4881E+00
     21.927  0.1208E-01  0.4894E+00
     22.040  0.1330E-01  0.4909E+00
     22.152  0.1587E-01  0.4927E+00
     22.265  0.1733E-01  0.4947E+00
     22.377  0.1779E-01  0.4967E+00
     22.490  0.1292E-01  0.4981E+00
     22.603  0.8814E-02  0.4991E+00
     22.715  0.8290E-02  0.5001E+00
     22.828  0.7481E-02  0.5009E+00
     22.940  0.1313E-01  0.5024E+00
     23.053  0.2506E-01  0.5052E+00
     23.165  0.3078E-01  0.5087E+00
     23.278  0.2338E-01  0.5113E+00
     23.390  0.1515E-01  0.5130E+00
     23.503  0.1794E-01  0.5150E+00
     23.615  0.2339E-01  0.5176E+00
     23.728  0.2105E-01  0.5200E+00
     23.840  0.1284E-01  0.5215E+00
     23.953  0.8981E-02  0.5225E+00
     24.065  0.1116E-01  0.5237E+00
     24.178  0.1546E-01  0.5255E+00
     24.290  0.2223E-01  0.5280E+00
     24.403  0.2441E-01  0.5307E+00
     24.515  0.1939E-01  0.5329E+00
     24.628  0.1274E-01  0.5343E+00
     24.740  0.5739E-02  0.5350E+00
     24.853  0.3035E-02  0.5353E+00
     24.965  0.1030E-01  0.5365E+00
     25.078  0.2148E-01  0.5389E+00
     25.190  0.2510E-01  0.5417E+00
     25.303  0.1848E-01  0.5438E+00
     25.416  0.1292E-01  0.5452E+00
     25.528  0.1439E-01  0.5469E+00
     25.641  0.1791E-01  0.5489E+00
     25.753  0.2230E-01  0.5514E+00
     25.866  0.2407E-01  0.5541E+00
     25.978  0.2279E-01  0.5567E+00
     26.091  0.2003E-01  0.5589E+00
     26.203  0.1402E-01  0.5605E+00
     26.316  0.1409E-01  0.5621E+00
     26.428  0.1819E-01  0.5641E+00
     26.541  0.1596E-01  0.5659E+00
     26.653  0.1352E-01  0.5674E+00
     26.766  0.1481E-01  0.5691E+00
     26.878  0.1694E-01  0.5710E+00
     26.991  0.1640E-01  0.5729E+00
     27.103  0.9321E-02  0.5739E+00
     27.216  0.4756E-02  0.5744E+00
     27.328  0.1306E-01  0.5759E+00
     27.441  0.2278E-01  0.5785E+00
     27.553  0.1872E-01  0.5806E+00
     27.666  0.7963E-02  0.5815E+00
     27.778  0.3909E-02  0.5819E+00
     27.891  0.5637E-02  0.5826E+00
     28.003  0.5228E-02  0.5831E+00
     28.116  0.3082E-02  0.5835E+00
     28.229  0.3523E-02  0.5839E+00
     28.341  0.9760E-02  0.5850E+00
     28.454  0.1574E-01  0.5868E+00
     28.566  0.1485E-01  0.5884E+00
     28.679  0.1354E-01  0.5899E+00
     28.791  0.1285E-01  0.5914E+00
     28.904  0.8964E-02  0.5924E+00
     29.016  0.4928E-02  0.5930E+00
     29.129  0.2296E-02  0.5932E+00
     29.241  0.2742E-03  0.5932E+00
     29.354 -0.5541E-03  0.5932E+00
     29.466  0.2316E-03  0.5932E+00
     29.579  0.4342E-02  0.5937E+00
     29.691  0.1066E-01  0.5949E+00
     29.804  0.1154E-01  0.5962E+00
     29.916  0.5616E-02  0.5968E+00
     30.029  0.3000E-02  0.5972E+00
     30.141  0.6847E-02  0.5979E+00
     30.254  0.8055E-02  0.5988E+00
     30.366  0.3642E-02  0.5993E+00
     30.479  0.1162E-03  0.5993E+00
     30.591 -0.4369E-03  0.5992E+00
     30.704  0.1217E-03  0.5992E+00
     30.816  0.1256E-02  0.5994E+00
     30.929  0.1967E-02  0.5996E+00
     31.041  0.1200E-02  0.5997E+00
     31.154  0.1527E-03  0.5997E+00
     31.267  0.9629E-04  0.5998E+00
     31.379  0.7701E-03  0.5998E+00
     31.492  0.1011E-02  0.6000E+00
     31.604  0.4442E-03  0.6000E+00
     31.717 -0.2291E-06  0.6000E+00
     31.829 -0.4540E-04  0.6000E+00
     31.942 -0.1104E-04  0.6000E+00
     32.054 -0.1070E-05  0.6000E+00
     32.167 -0.4913E-07  0.6000E+00
     32.279 -0.1127E-08  0.6000E+00
     32.392 -0.1323E-10  0.6000E+00
     32.504 -0.8039E-13  0.6000E+00
     32.617 -0.2549E-15  0.6000E+00
     32.729 -0.5139E-18  0.6000E+00
     32.842  0.0000E+00  0.6000E+00
     32.954  0.0000E+00  0.6000E+00
     33.067  0.0000E+00  0.6000E+00
     33.179  0.0000E+00  0.6000E+00
     33.292  0.0000E+00  0.6000E+00
     33.404  0.0000E+00  0.6000E+00
