    1    1   30    1
  0.1513295E+02  0.2776384E-09  0.2776384E-09  0.2776384E-09  0.5000000E-15
  1.000000000000000E-004
  CAR 
 unknown system                          
     11     60      9
 
  0.6250000E-01  0.6250000E-01  0.6250000E-01  0.3906250E-02
    1        1.648500
    2        4.886423
    3        4.963723
    4        4.963723
    5        6.183564
    6        6.183564
    7       26.517025
    8       29.702551
    9       30.829241
 
  0.1875000E+00  0.6250000E-01  0.6250000E-01  0.1171875E-01
    1        2.314880
    2        4.714325
    3        5.139044
    4        5.168271
    5        6.015808
    6        6.287692
    7       26.129489
    8       27.374490
    9       30.156413
 
  0.3125000E+00  0.6250000E-01  0.6250000E-01  0.1171875E-01
    1        3.202305
    2        5.033070
    3        5.204250
    4        5.293604
    5        6.223057
    6        6.803168
    7       21.543302
    8       26.771465
    9       29.757671
 
  0.4375000E+00  0.6250000E-01  0.6250000E-01  0.1171875E-01
    1        3.152452
    2        4.923322
    3        5.014560
    4        6.596070
    5        6.846657
    6        8.393330
    7       16.788418
    8       25.933960
    9       28.578331
 
 -0.4375000E+00  0.6250000E-01  0.6250000E-01  0.1171875E-01
    1        3.075345
    2        4.834975
    3        4.963160
    4        6.812735
    5        7.181974
    6        9.815105
    7       14.660775
    8       25.689444
    9       28.710394
 
 -0.3125000E+00  0.6250000E-01  0.6250000E-01  0.1171875E-01
    1        3.200725
    2        4.966684
    3        5.102458
    4        6.073966
    5        6.945180
    6        7.528081
    7       18.279255
    8       26.330695
    9       29.003065
 
 -0.1875000E+00  0.6250000E-01  0.6250000E-01  0.1171875E-01
    1        3.008045
    2        4.785507
    3        5.213289
    4        5.245403
    5        6.201574
    6        6.453642
    7       23.198037
    8       27.298100
    9       29.783639
 
 -0.6250000E-01  0.6250000E-01  0.6250000E-01  0.1171875E-01
    1        1.995926
    2        4.748764
    3        5.091039
    4        5.094516
    5        6.038768
    6        6.259553
    7       26.644835
    8       28.462430
    9       30.212987
 
  0.1875000E+00  0.1875000E+00  0.6250000E-01  0.1171875E-01
    1        2.628566
    2        4.480771
    3        5.327099
    4        5.348548
    5        5.869840
    6        6.402304
    7       26.493431
    8       27.584504
    9       28.847026
 
  0.3125000E+00  0.1875000E+00  0.6250000E-01  0.2343750E-01
    1        3.505564
    2        4.272323
    3        5.176383
    4        5.660555
    5        6.240280
    6        6.920717
    7       23.660928
    8       25.699043
    9       28.390285
 
  0.4375000E+00  0.1875000E+00  0.6250000E-01  0.2343750E-01
    1        3.571829
    2        4.721383
    3        5.110366
    4        5.562025
    5        6.945959
    6        8.793591
    7       18.687639
    8       25.140752
    9       26.416063
 
 -0.4375000E+00  0.1875000E+00  0.6250000E-01  0.2343750E-01
    1        3.482486
    2        4.552431
    3        5.354176
    4        5.812510
    5        7.132091
    6       11.484550
    7       14.799573
    8       24.591910
    9       25.785371
 
 -0.3125000E+00  0.1875000E+00  0.6250000E-01  0.2343750E-01
    1        3.603614
    2        4.662653
    3        5.331230
    4        5.613843
    5        6.770879
    6        9.829652
    7       17.212511
    8       23.970602
    9       26.850117
 
 -0.1875000E+00  0.1875000E+00  0.6250000E-01  0.2343750E-01
    1        3.761828
    2        4.491978
    3        5.028745
    4        5.626962
    5        6.059527
    6        7.648660
    7       22.021965
    8       24.217982
    9       28.730377
 
 -0.6250000E-01  0.1875000E+00  0.6250000E-01  0.2343750E-01
    1        2.887376
    2        4.533376
    3        5.254818
    4        5.344541
    5        5.944941
    6        6.515502
    7       24.971675
    8       26.658735
    9       29.657669
 
  0.3125000E+00  0.3125000E+00  0.6250000E-01  0.1171875E-01
    1        3.567879
    2        3.804583
    3        5.867518
    4        6.135264
    5        6.808618
    6        6.934071
    7       24.037980
    8       25.189252
    9       25.759677
 
  0.4375000E+00  0.3125000E+00  0.6250000E-01  0.2343750E-01
    1        3.531850
    2        3.713055
    3        5.759966
    4        6.488500
    5        7.002109
    6        9.169129
    7       21.106102
    8       23.103186
    9       23.260741
 
 -0.4375000E+00  0.3125000E+00  0.6250000E-01  0.2343750E-01
    1        3.577474
    2        4.089487
    3        5.425643
    4        6.181450
    5        7.196420
    6       12.539532
    7       16.628159
    8       21.077671
    9       23.497176
 
 -0.3125000E+00  0.3125000E+00  0.6250000E-01  0.2343750E-01
    1        3.938361
    2        4.481951
    3        4.948074
    4        5.968244
    5        6.800152
    6       12.734242
    7       16.861446
    8       19.660773
    9       25.115836
 
 -0.1875000E+00  0.3125000E+00  0.6250000E-01  0.2343750E-01
    1        4.091770
    2        4.548943
    3        4.850135
    4        5.796728
    5        6.382665
    6        9.822942
    7       19.282604
    8       21.611125
    9       26.940957
 
 -0.6250000E-01  0.3125000E+00  0.6250000E-01  0.2343750E-01
    1        3.411089
    2        4.973809
    3        5.201578
    4        5.360619
    5        6.550595
    6        7.532726
    7       20.040030
    8       26.032152
    9       28.360356
 
  0.4375000E+00  0.4375000E+00  0.6250000E-01  0.1171875E-01
    1        3.127802
    2        3.272281
    3        6.906584
    4        6.937311
    5        7.232856
    6       10.137175
    7       20.333773
    8       21.563689
    9       22.375613
 
 -0.4375000E+00  0.4375000E+00  0.6250000E-01  0.2343750E-01
    1        3.156070
    2        3.351928
    3        6.557336
    4        6.887706
    5        7.371754
    6       12.595686
    7       18.305231
    8       19.687329
    9       21.536075
 
 -0.3125000E+00  0.4375000E+00  0.6250000E-01  0.2343750E-01
    1        3.504879
    2        3.970118
    3        5.597513
    4        6.389091
    5        7.161498
    6       14.524357
    7       16.127281
    8       18.724110
    9       23.096961
 
 -0.1875000E+00  0.4375000E+00  0.6250000E-01  0.2343750E-01
    1        3.770021
    2        4.397437
    3        5.364168
    4        5.674522
    5        7.001714
    6       12.630055
    7       15.075906
    8       22.190035
    9       25.290061
 
 -0.6250000E-01  0.4375000E+00  0.6250000E-01  0.2343750E-01
    1        3.254960
    2        4.761315
    3        5.117904
    4        6.257215
    5        7.080329
    6        9.829161
    7       15.590028
    8       25.545073
    9       27.363492
 
 -0.4375000E+00 -0.4375000E+00  0.6250000E-01  0.1171875E-01
    1        2.974137
    2        3.152938
    3        7.068153
    4        7.211566
    5        7.387374
    6       11.699686
    7       18.282226
    8       20.947700
    9       21.729403
 
 -0.3125000E+00 -0.4375000E+00  0.6250000E-01  0.2343750E-01
    1        3.303802
    2        3.471222
    3        6.223859
    4        6.807959
    5        7.215807
    6       10.960942
    7       20.005954
    8       20.647069
    9       22.092296
 
 -0.1875000E+00 -0.4375000E+00  0.6250000E-01  0.2343750E-01
    1        3.627192
    2        4.356236
    3        5.215972
    4        5.869407
    5        7.150774
    6       10.518401
    7       17.520633
    8       23.763092
    9       24.279997
 
 -0.3125000E+00 -0.3125000E+00  0.6250000E-01  0.1171875E-01
    1        3.379270
    2        3.500025
    3        6.456552
    4        6.568720
    5        7.025968
    6        8.352264
    7       22.643460
    8       23.094192
    9       23.576700
 
 -0.1875000E+00 -0.3125000E+00  0.6250000E-01  0.2343750E-01
    1        3.714939
    2        4.008211
    3        5.305581
    4        6.060917
    5        6.693758
    6        7.744402
    7       22.344535
    8       24.408312
    9       26.013386
 
 -0.1875000E+00 -0.1875000E+00  0.6250000E-01  0.1171875E-01
    1        3.318460
    2        4.146121
    3        5.474776
    4        5.707021
    5        6.110423
    6        6.593177
    7       25.430204
    8       27.033906
    9       27.370396
 
  0.1875000E+00  0.1875000E+00  0.1875000E+00  0.3906250E-02
    1        2.572980
    2        4.799317
    3        5.159775
    4        5.159775
    5        6.183190
    6        6.183190
    7       24.700609
    8       27.489594
    9       31.404412
 
  0.3125000E+00  0.1875000E+00  0.1875000E+00  0.1171875E-01
    1        3.324610
    2        4.551507
    3        5.227939
    4        5.419500
    5        5.859036
    6        6.949638
    7       23.439845
    8       25.460275
    9       30.098842
 
  0.4375000E+00  0.1875000E+00  0.1875000E+00  0.1171875E-01
    1        3.955542
    2        4.607346
    3        5.074260
    4        5.567019
    5        6.068390
    6        8.590828
    7       20.565741
    8       22.833183
    9       28.579320
 
 -0.4375000E+00  0.1875000E+00  0.1875000E+00  0.1171875E-01
    1        3.664305
    2        4.563624
    3        5.439354
    4        5.615960
    5        6.815482
    6       11.118058
    7       15.984668
    8       22.946692
    9       27.504288
 
 -0.3125000E+00  0.1875000E+00  0.1875000E+00  0.1171875E-01
    1        3.521321
    2        4.523132
    3        5.509932
    4        5.513451
    5        7.219515
    6       11.009567
    7       15.852972
    8       24.077690
    9       26.282077
 
 -0.1875000E+00  0.1875000E+00  0.1875000E+00  0.1171875E-01
    1        3.593730
    2        4.398601
    3        5.180302
    4        5.698438
    5        7.028271
    6        8.030905
    7       20.411500
    8       25.863946
    9       26.047157
 
  0.3125000E+00  0.3125000E+00  0.1875000E+00  0.1171875E-01
    1        3.429841
    2        4.675605
    3        5.090518
    4        5.425112
    5        6.756082
    6        6.822320
    7       21.763076
    8       26.970528
    9       27.850766
 
  0.4375000E+00  0.3125000E+00  0.1875000E+00  0.2343750E-01
    1        3.929929
    2        4.403621
    3        4.817250
    4        5.977909
    5        6.481593
    6        8.716956
    7       20.721850
    8       22.986811
    9       26.352892
 
 -0.4375000E+00  0.3125000E+00  0.1875000E+00  0.2343750E-01
    1        4.184300
    2        4.294397
    3        4.718960
    4        6.080652
    5        6.774033
    6       11.420559
    7       18.175173
    8       20.631297
    9       24.275849
 
 -0.3125000E+00  0.3125000E+00  0.1875000E+00  0.2343750E-01
    1        3.914590
    2        4.227444
    3        5.058340
    4        5.986643
    5        7.110783
    6       13.540315
    7       15.349709
    8       21.677236
    9       22.628248
 
 -0.1875000E+00  0.3125000E+00  0.1875000E+00  0.2343750E-01
    1        3.816254
    2        4.082505
    3        5.072144
    4        6.340849
    5        6.851887
    6       10.239763
    7       19.574350
    8       21.877676
    9       23.636758
 
  0.4375000E+00  0.4375000E+00  0.1875000E+00  0.1171875E-01
    1        3.514205
    2        4.023658
    3        5.574775
    4        6.039262
    5        7.215414
    6        9.669928
    7       19.198578
    8       23.413730
    9       24.562814
 
 -0.4375000E+00  0.4375000E+00  0.1875000E+00  0.2343750E-01
    1        3.623127
    2        3.830214
    3        5.436838
    4        6.536750
    5        7.158635
    6       12.108550
    7       18.672534
    8       20.713993
    9       21.260580
 
 -0.3125000E+00  0.4375000E+00  0.1875000E+00  0.2343750E-01
    1        3.788006
    2        4.234690
    3        4.913870
    4        6.232850
    5        7.365054
    6       15.382202
    7       16.819624
    8       18.796008
    9       19.901895
 
 -0.1875000E+00  0.4375000E+00  0.1875000E+00  0.2343750E-01
    1        3.962756
    2        4.243683
    3        4.797818
    4        6.219880
    5        7.132850
    6       13.354352
    7       17.310510
    8       19.920209
    9       21.562694
 
 -0.4375000E+00 -0.4375000E+00  0.1875000E+00  0.1171875E-01
    1        3.254570
    2        3.599060
    3        6.237988
    4        6.664681
    5        7.245389
    6       13.346277
    7       17.673509
    8       18.577335
    9       22.961187
 
 -0.3125000E+00 -0.4375000E+00  0.1875000E+00  0.2343750E-01
    1        3.475975
    2        3.724736
    3        5.714881
    4        6.542760
    5        7.366444
    6       13.921143
    7       18.062153
    8       18.699019
    9       20.696056
 
 -0.3125000E+00 -0.3125000E+00  0.1875000E+00  0.1171875E-01
    1        3.364038
    2        3.738083
    3        5.984371
    4        6.393801
    5        7.281463
    6       11.582030
    7       18.244191
    8       20.725012
    9       23.508822
 
  0.3125000E+00  0.3125000E+00  0.3125000E+00  0.3906250E-02
    1        3.146308
    2        5.087581
    3        5.087581
    4        6.051551
    5        6.611824
    6        6.611824
    7       19.810541
    8       26.707429
    9       30.912313
 
  0.4375000E+00  0.3125000E+00  0.3125000E+00  0.1171875E-01
    1        3.471018
    2        4.864647
    3        5.245727
    4        5.686105
    5        6.474048
    6        8.500436
    7       18.524415
    8       24.952420
    9       28.086685
 
 -0.4375000E+00  0.3125000E+00  0.3125000E+00  0.1171875E-01
    1        4.032921
    2        4.571827
    3        5.012183
    4        5.750322
    5        6.511109
    6       11.134054
    7       18.002385
    8       20.472666
    9       27.854632
 
 -0.3125000E+00  0.3125000E+00  0.3125000E+00  0.1171875E-01
    1        3.655281
    2        4.305275
    3        5.311102
    4        6.147888
    5        6.934886
    6       14.241108
    7       15.645448
    8       19.045599
    9       25.145598
 
  0.4375000E+00  0.4375000E+00  0.3125000E+00  0.1171875E-01
    1        3.345082
    2        4.764666
    3        5.250845
    4        5.753280
    5        7.161736
    6        9.121371
    7       16.950077
    8       25.819496
    9       27.446756
 
 -0.4375000E+00  0.4375000E+00  0.3125000E+00  0.2343750E-01
    1        3.786023
    2        4.394181
    3        5.235056
    4        5.734089
    5        7.013634
    6       11.545961
    7       16.122501
    8       23.166594
    9       24.411398
 
 -0.3125000E+00  0.4375000E+00  0.3125000E+00  0.2343750E-01
    1        3.861120
    2        4.301921
    3        4.930858
    4        6.152752
    5        7.131515
    6       14.645674
    7       15.946826
    8       19.162435
    9       22.344363
 
 -0.4375000E+00 -0.4375000E+00  0.3125000E+00  0.1171875E-01
    1        3.638471
    2        4.351010
    3        5.369700
    4        5.846797
    5        7.116950
    6       13.070822
    7       15.107234
    8       21.496036
    9       25.519165
 
  0.4375000E+00  0.4375000E+00  0.4375000E+00  0.3906250E-02
    1        3.020851
    2        4.916764
    3        4.916764
    4        7.100472
    5        7.100472
    6        8.742098
    7       15.456635
    8       25.815588
    9       29.532635
 
 -0.4375000E+00  0.4375000E+00  0.4375000E+00  0.1171875E-01
    1        3.301871
    2        4.696505
    3        5.147628
    4        6.249199
    5        7.075529
    6       10.777315
    7       14.734425
    8       25.042832
    9       27.444047
