       N       E                     dE             d eps       ncg     rms          rms(c)
DAV:   1     0.285768820272E+02    0.28577E+02   -0.45685E+03  1216   0.793E+02
DAV:   2    -0.264552299916E+01   -0.31222E+02   -0.29892E+02  1112   0.168E+02
DAV:   3    -0.283975973018E+01   -0.19424E+00   -0.19420E+00  1360   0.155E+01
DAV:   4    -0.284008936590E+01   -0.32964E-03   -0.32963E-03  1169   0.563E-01
DAV:   5    -0.284009155157E+01   -0.21857E-05   -0.21859E-05  1088   0.417E-02    0.732E+00
DAV:   6    -0.257288218318E+01    0.26721E+00   -0.10892E+00  1093   0.116E+01    0.447E+00
DAV:   7    -0.255708740433E+01    0.15795E-01   -0.25046E-02  1166   0.174E+00    0.229E+00
DAV:   8    -0.255286917105E+01    0.42182E-02   -0.75520E-04  1112   0.255E-01    0.113E-01
DAV:   9    -0.255287473226E+01   -0.55612E-05   -0.63018E-06   585   0.271E-02
   1 F= -.25528747E+01 E0= -.25527961E+01  d E =-.255287E+01
