<?xml version="1.0" encoding="ISO-8859-1"?>
<modeling>
 <generator>
  <i name="program" type="string">vasp </i>
  <i name="version" type="string">5.3.5  </i>
  <i name="subversion" type="string">31Mar14 (build Jan 09 2015 16:57:47) complex                          serial </i>
  <i name="platform" type="string">LinuxIFC </i>
  <i name="date" type="string">2015 03 24 </i>
  <i name="time" type="string">14:26:01 </i>
 </generator>
 <incar>
  <i type="string" name="PREC">normal</i>
  <i type="int" name="IBRION">     2</i>
  <i type="int" name="NSW">    30</i>
  <i type="int" name="ISIF">     2</i>
  <i name="ENCUT">    350.00000000</i>
 </incar>
 <kpoints>
  <generation param="Monkhorst-Pack">
   <v type="int" name="divisions">       8        8        8 </v>
   <v name="usershift">      0.00000000       0.00000000       0.00000000 </v>
   <v name="genvec1">      0.12500000       0.00000000       0.00000000 </v>
   <v name="genvec2">      0.00000000       0.12500000       0.00000000 </v>
   <v name="genvec3">      0.00000000       0.00000000       0.12500000 </v>
   <v name="shift">      0.50000000       0.50000000       0.50000000 </v>
  </generation>
  <varray name="kpointlist" >
   <v>       0.06250000       0.06250000       0.06250000 </v>
   <v>       0.18750000       0.06250000       0.06250000 </v>
   <v>       0.31250000       0.06250000       0.06250000 </v>
   <v>       0.43750000       0.06250000       0.06250000 </v>
   <v>      -0.43750000       0.06250000       0.06250000 </v>
   <v>      -0.31250000       0.06250000       0.06250000 </v>
   <v>      -0.18750000       0.06250000       0.06250000 </v>
   <v>      -0.06250000       0.06250000       0.06250000 </v>
   <v>       0.18750000       0.18750000       0.06250000 </v>
   <v>       0.31250000       0.18750000       0.06250000 </v>
   <v>       0.43750000       0.18750000       0.06250000 </v>
   <v>      -0.43750000       0.18750000       0.06250000 </v>
   <v>      -0.31250000       0.18750000       0.06250000 </v>
   <v>      -0.18750000       0.18750000       0.06250000 </v>
   <v>      -0.06250000       0.18750000       0.06250000 </v>
   <v>       0.31250000       0.31250000       0.06250000 </v>
   <v>       0.43750000       0.31250000       0.06250000 </v>
   <v>      -0.43750000       0.31250000       0.06250000 </v>
   <v>      -0.31250000       0.31250000       0.06250000 </v>
   <v>      -0.18750000       0.31250000       0.06250000 </v>
   <v>      -0.06250000       0.31250000       0.06250000 </v>
   <v>       0.43750000       0.43750000       0.06250000 </v>
   <v>      -0.43750000       0.43750000       0.06250000 </v>
   <v>      -0.31250000       0.43750000       0.06250000 </v>
   <v>      -0.18750000       0.43750000       0.06250000 </v>
   <v>      -0.06250000       0.43750000       0.06250000 </v>
   <v>      -0.43750000      -0.43750000       0.06250000 </v>
   <v>      -0.31250000      -0.43750000       0.06250000 </v>
   <v>      -0.18750000      -0.43750000       0.06250000 </v>
   <v>      -0.31250000      -0.31250000       0.06250000 </v>
   <v>      -0.18750000      -0.31250000       0.06250000 </v>
   <v>      -0.18750000      -0.18750000       0.06250000 </v>
   <v>       0.18750000       0.18750000       0.18750000 </v>
   <v>       0.31250000       0.18750000       0.18750000 </v>
   <v>       0.43750000       0.18750000       0.18750000 </v>
   <v>      -0.43750000       0.18750000       0.18750000 </v>
   <v>      -0.31250000       0.18750000       0.18750000 </v>
   <v>      -0.18750000       0.18750000       0.18750000 </v>
   <v>       0.31250000       0.31250000       0.18750000 </v>
   <v>       0.43750000       0.31250000       0.18750000 </v>
   <v>      -0.43750000       0.31250000       0.18750000 </v>
   <v>      -0.31250000       0.31250000       0.18750000 </v>
   <v>      -0.18750000       0.31250000       0.18750000 </v>
   <v>       0.43750000       0.43750000       0.18750000 </v>
   <v>      -0.43750000       0.43750000       0.18750000 </v>
   <v>      -0.31250000       0.43750000       0.18750000 </v>
   <v>      -0.18750000       0.43750000       0.18750000 </v>
   <v>      -0.43750000      -0.43750000       0.18750000 </v>
   <v>      -0.31250000      -0.43750000       0.18750000 </v>
   <v>      -0.31250000      -0.31250000       0.18750000 </v>
   <v>       0.31250000       0.31250000       0.31250000 </v>
   <v>       0.43750000       0.31250000       0.31250000 </v>
   <v>      -0.43750000       0.31250000       0.31250000 </v>
   <v>      -0.31250000       0.31250000       0.31250000 </v>
   <v>       0.43750000       0.43750000       0.31250000 </v>
   <v>      -0.43750000       0.43750000       0.31250000 </v>
   <v>      -0.31250000       0.43750000       0.31250000 </v>
   <v>      -0.43750000      -0.43750000       0.31250000 </v>
   <v>       0.43750000       0.43750000       0.43750000 </v>
   <v>      -0.43750000       0.43750000       0.43750000 </v>
  </varray>
  <varray name="weights" >
   <v>       0.00390625 </v>
   <v>       0.01171875 </v>
   <v>       0.01171875 </v>
   <v>       0.01171875 </v>
   <v>       0.01171875 </v>
   <v>       0.01171875 </v>
   <v>       0.01171875 </v>
   <v>       0.01171875 </v>
   <v>       0.01171875 </v>
   <v>       0.02343750 </v>
   <v>       0.02343750 </v>
   <v>       0.02343750 </v>
   <v>       0.02343750 </v>
   <v>       0.02343750 </v>
   <v>       0.02343750 </v>
   <v>       0.01171875 </v>
   <v>       0.02343750 </v>
   <v>       0.02343750 </v>
   <v>       0.02343750 </v>
   <v>       0.02343750 </v>
   <v>       0.02343750 </v>
   <v>       0.01171875 </v>
   <v>       0.02343750 </v>
   <v>       0.02343750 </v>
   <v>       0.02343750 </v>
   <v>       0.02343750 </v>
   <v>       0.01171875 </v>
   <v>       0.02343750 </v>
   <v>       0.02343750 </v>
   <v>       0.01171875 </v>
   <v>       0.02343750 </v>
   <v>       0.01171875 </v>
   <v>       0.00390625 </v>
   <v>       0.01171875 </v>
   <v>       0.01171875 </v>
   <v>       0.01171875 </v>
   <v>       0.01171875 </v>
   <v>       0.01171875 </v>
   <v>       0.01171875 </v>
   <v>       0.02343750 </v>
   <v>       0.02343750 </v>
   <v>       0.02343750 </v>
   <v>       0.02343750 </v>
   <v>       0.01171875 </v>
   <v>       0.02343750 </v>
   <v>       0.02343750 </v>
   <v>       0.02343750 </v>
   <v>       0.01171875 </v>
   <v>       0.02343750 </v>
   <v>       0.01171875 </v>
   <v>       0.00390625 </v>
   <v>       0.01171875 </v>
   <v>       0.01171875 </v>
   <v>       0.01171875 </v>
   <v>       0.01171875 </v>
   <v>       0.02343750 </v>
   <v>       0.02343750 </v>
   <v>       0.01171875 </v>
   <v>       0.00390625 </v>
   <v>       0.01171875 </v>
  </varray>
 </kpoints>
 <parameters>
  <separator name="general" >
   <i type="string" name="SYSTEM">unknown system</i>
   <i type="logical" name="LCOMPAT"> F  </i>
  </separator>
  <separator name="electronic" >
   <i type="string" name="PREC">normal</i>
   <i name="ENMAX">    350.00000000</i>
   <i name="ENAUG">    412.49600000</i>
   <i name="EDIFF">      0.00010000</i>
   <i type="int" name="IALGO">    38</i>
   <i type="int" name="IWAVPR">    11</i>
   <i type="int" name="NBANDS">     9</i>
   <i name="NELECT">     11.00000000</i>
   <i type="int" name="TURBO">     0</i>
   <i type="int" name="IRESTART">     0</i>
   <i type="int" name="NREBOOT">     0</i>
   <i type="int" name="NMIN">     0</i>
   <i name="EREF">      0.00000000</i>
   <separator name="electronic smearing" >
    <i type="int" name="ISMEAR">     1</i>
    <i name="SIGMA">      0.20000000</i>
    <i name="KSPACING">      0.50000000</i>
    <i type="logical" name="KGAMMA"> T  </i>
   </separator>
   <separator name="electronic projectors" >
    <i type="logical" name="LREAL"> F  </i>
    <v name="ROPT">      0.00000000</v>
    <i type="int" name="LMAXPAW">  -100</i>
    <i type="int" name="LMAXMIX">     2</i>
    <i type="logical" name="NLSPLINE"> F  </i>
   </separator>
   <separator name="electronic startup" >
    <i type="int" name="ISTART">     0</i>
    <i type="int" name="ICHARG">     2</i>
    <i type="int" name="INIWAV">     1</i>
   </separator>
   <separator name="electronic spin" >
    <i type="int" name="ISPIN">     1</i>
    <i type="logical" name="LNONCOLLINEAR"> F  </i>
    <v name="MAGMOM">      1.00000000</v>
    <i name="NUPDOWN">     -1.00000000</i>
    <i type="logical" name="LSORBIT"> F  </i>
    <v name="SAXIS">      0.00000000      0.00000000      1.00000000</v>
    <i type="logical" name="LSPIRAL"> F  </i>
    <v name="QSPIRAL">      0.00000000      0.00000000      0.00000000</v>
    <i type="logical" name="LZEROZ"> F  </i>
   </separator>
   <separator name="electronic exchange-correlation" >
    <i type="logical" name="LASPH"> F  </i>
    <i type="logical" name="LMETAGGA"> F  </i>
   </separator>
   <separator name="electronic convergence" >
    <i type="int" name="NELM">    60</i>
    <i type="int" name="NELMDL">    -5</i>
    <i type="int" name="NELMIN">     2</i>
    <i name="ENINI">    350.00000000</i>
    <separator name="electronic convergence detail" >
     <i type="logical" name="LDIAG"> T  </i>
     <i type="logical" name="LSUBROT"> F  </i>
     <i name="WEIMIN">      0.00100000</i>
     <i name="EBREAK">      0.00000278</i>
     <i name="DEPER">      0.30000000</i>
     <i type="int" name="NRMM">     4</i>
     <i name="TIME">      0.40000000</i>
    </separator>
   </separator>
   <separator name="electronic mixer" >
    <i name="AMIX">      0.40000000</i>
    <i name="BMIX">      1.00000000</i>
    <i name="AMIN">      0.10000000</i>
    <i name="AMIX_MAG">      1.60000000</i>
    <i name="BMIX_MAG">      1.00000000</i>
    <separator name="electronic mixer details" >
     <i type="int" name="IMIX">     4</i>
     <i type="int" name="MAXMIX">   -45</i>
     <i name="WC">    100.00000000</i>
     <i type="int" name="INIMIX">     1</i>
     <i type="int" name="MIXPRE">     1</i>
     <i type="int" name="MREMOVE">     5</i>
    </separator>
   </separator>
   <separator name="electronic dipolcorrection" >
    <i type="logical" name="LDIPOL"> F  </i>
    <i type="logical" name="LMONO"> F  </i>
    <i type="int" name="IDIPOL">     0</i>
    <i name="EPSILON">      1.00000000</i>
    <v name="DIPOL">   -100.00000000   -100.00000000   -100.00000000</v>
    <i name="EFIELD">      0.00000000</i>
   </separator>
  </separator>
  <separator name="grids" >
   <i type="int" name="NGX">    14</i>
   <i type="int" name="NGY">    14</i>
   <i type="int" name="NGZ">    14</i>
   <i type="int" name="NGXF">    28</i>
   <i type="int" name="NGYF">    28</i>
   <i type="int" name="NGZF">    28</i>
   <i type="logical" name="ADDGRID"> F  </i>
  </separator>
  <separator name="ionic" >
   <i type="int" name="NSW">    30</i>
   <i type="int" name="IBRION">     2</i>
   <i type="int" name="ISIF">     2</i>
   <i name="PSTRESS">      0.00000000</i>
   <i name="EDIFFG">      0.00100000</i>
   <i type="int" name="NFREE">     1</i>
   <i name="POTIM">      0.50000000</i>
   <i name="SMASS">     -3.00000000</i>
   <i name="SCALEE">      1.00000000</i>
  </separator>
  <separator name="ionic md" >
   <i name="TEBEG">      0.00010000</i>
   <i name="TEEND">      0.00010000</i>
   <i type="int" name="NBLOCK">     1</i>
   <i type="int" name="KBLOCK">    30</i>
   <i type="int" name="NPACO">   256</i>
   <i name="APACO">     16.00000000</i>
  </separator>
  <separator name="symmetry" >
   <i type="int" name="ISYM">     2</i>
   <i name="SYMPREC">      0.00001000</i>
  </separator>
  <separator name="dos" >
   <i type="logical" name="LORBIT"> F  </i>
   <v name="RWIGS">     -1.00000000</v>
   <i type="int" name="NEDOS">   301</i>
   <i name="EMIN">     10.00000000</i>
   <i name="EMAX">    -10.00000000</i>
   <i name="EFERMI">      0.00000000</i>
  </separator>
  <separator name="writing" >
   <i type="int" name="NWRITE">     2</i>
   <i type="logical" name="LWAVE"> T  </i>
   <i type="logical" name="LCHARG"> T  </i>
   <i type="logical" name="LPARD"> F  </i>
   <i type="logical" name="LVTOT"> F  </i>
   <i type="logical" name="LVHAR"> F  </i>
   <i type="logical" name="LELF"> F  </i>
   <i type="logical" name="LOPTICS"> F  </i>
   <v name="STM">      0.00000000      0.00000000      0.00000000      0.00000000      0.00000000      0.00000000      0.00000000</v>
  </separator>
  <separator name="performance" >
   <i type="int" name="NPAR">     1</i>
   <i type="int" name="NSIM">     4</i>
   <i type="int" name="NBLK">    -1</i>
   <i type="logical" name="LPLANE"> T  </i>
   <i type="logical" name="LSCALAPACK"> F  </i>
   <i type="logical" name="LSCAAWARE"> F  </i>
   <i type="logical" name="LSCALU"> F  </i>
   <i type="logical" name="LASYNC"> F  </i>
   <i type="logical" name="LORBITALREAL"> F  </i>
  </separator>
  <separator name="miscellaneous" >
   <i type="int" name="IDIOT">     3</i>
   <i type="logical" name="LMUSIC"> F  </i>
   <v name="POMASS">    107.86800000</v>
   <v name="DARWINR">      0.00000000</v>
   <v name="DARWINV">      1.00000000</v>
   <i type="logical" name="LCORR"> T  </i>
  </separator>
  <i type="logical" name="GGA_COMPAT"> T  </i>
  <i type="logical" name="LBERRY"> F  </i>
  <i type="int" name="ICORELEVEL">     0</i>
  <i type="logical" name="LDAU"> F  </i>
  <i type="int" name="I_CONSTRAINED_M">     0</i>
  <separator name="electronic exchange-correlation" >
   <i type="string" name="GGA">--</i>
   <i type="int" name="VOSKOWN">     0</i>
   <i type="logical" name="LHFCALC"> F  </i>
   <i type="string" name="PRECFOCK"></i>
   <i type="logical" name="LSYMGRAD"> F  </i>
   <i type="logical" name="LHFONE"> F  </i>
   <i type="logical" name="LRHFCALC"> F  </i>
   <i type="logical" name="LTHOMAS"> F  </i>
   <i type="logical" name="LMODELHF"> F  </i>
   <i name="ENCUT4O">     -1.00000000</i>
   <i type="int" name="EXXOEP">     0</i>
   <i type="int" name="FOURORBIT">     0</i>
   <i name="AEXX">      0.00000000</i>
   <i name="HFALPHA">      0.00000000</i>
   <i name="MCALPHA">      0.00000000</i>
   <i name="ALDAX">      1.00000000</i>
   <i name="AGGAX">      1.00000000</i>
   <i name="ALDAC">      1.00000000</i>
   <i name="AGGAC">      1.00000000</i>
   <i type="int" name="NKREDX">     1</i>
   <i type="int" name="NKREDY">     1</i>
   <i type="int" name="NKREDZ">     1</i>
   <i type="logical" name="SHIFTRED"> F  </i>
   <i type="logical" name="ODDONLY"> F  </i>
   <i type="logical" name="EVENONLY"> F  </i>
   <i type="int" name="LMAXFOCK">     0</i>
   <i type="int" name="NMAXFOCKAE">     0</i>
   <i type="logical" name="LFOCKAEDFT"> F  </i>
   <i name="HFSCREEN">      0.00000000</i>
   <i name="HFSCREENC">      0.00000000</i>
   <i type="int" name="NBANDSGWLOW">     0</i>
  </separator>
  <separator name="vdW DFT" >
   <i type="logical" name="LUSE_VDW"> F  </i>
   <i name="Zab_VDW">     -0.84910000</i>
   <i name="PARAM1">      0.12340000</i>
   <i name="PARAM2">      1.00000000</i>
   <i name="PARAM3">      0.00000000</i>
  </separator>
  <separator name="model GW" >
   <i type="int" name="MODEL_GW">     0</i>
   <i name="MODEL_EPS0">      9.07977072</i>
   <i name="MODEL_ALPHA">      1.00000000</i>
  </separator>
  <separator name="linear response parameters" >
   <i type="logical" name="LEPSILON"> F  </i>
   <i type="logical" name="LRPA"> F  </i>
   <i type="logical" name="LNABLA"> F  </i>
   <i type="logical" name="LVEL"> F  </i>
   <i type="int" name="KINTER">     0</i>
   <i name="CSHIFT">      0.10000000</i>
   <i name="OMEGAMAX">     -1.00000000</i>
   <i name="DEG_THRESHOLD">      0.00200000</i>
  </separator>
  <separator name="orbital magnetization" >
   <i type="logical" name="NUCIND"> F  </i>
   <v name="MAGPOS">      0.00000000      0.00000000      0.00000000</v>
   <i type="logical" name="LNICSALL"> T  </i>
   <i type="logical" name="ORBITALMAG"> F  </i>
   <i type="logical" name="LMAGBLOCH"> F  </i>
   <i type="logical" name="LCHIMAG"> F  </i>
   <i type="logical" name="LGAUGE"> T  </i>
   <i type="int" name="MAGATOM">     0</i>
   <v name="MAGDIPOL">      0.00000000      0.00000000      0.00000000</v>
   <v name="AVECCONST">      0.00000000      0.00000000      0.00000000</v>
  </separator>
  <separator name="response functions" >
   <i type="logical" name="LADDER"> F  </i>
   <i type="logical" name="LFXC"> F  </i>
   <i type="logical" name="LHARTREE"> T  </i>
   <i type="int" name="IBSE">     0</i>
   <i type="logical" name="LTCTE"> F  </i>
   <i type="logical" name="LTETE"> F  </i>
   <i type="logical" name="LTRIPLET"> F  </i>
   <i type="logical" name="LFXCEPS"> F  </i>
   <i type="logical" name="LFXHEG"> F  </i>
   <i type="logical" name="L2ORDER"> F  </i>
   <i type="logical" name="LUSEW"> F  </i>
   <i name="ENCUTGW">     -2.00000000</i>
   <i name="ENCUTGWSOFT">     -2.00000000</i>
   <i name="ENCUTLF">     -1.00000000</i>
   <i type="int" name="LMAXMP2">    -1</i>
   <i name="SCISSOR">      0.00000000</i>
   <i type="int" name="NOMEGA">     0</i>
   <i type="int" name="NOMEGAR">     0</i>
   <i type="int" name="NBANDSGW">    -1</i>
   <i type="int" name="NBANDSO">    -1</i>
   <i type="int" name="NBANDSV">    -1</i>
   <i type="int" name="NELM">     1</i>
   <i type="int" name="DIM">     3</i>
   <i type="int" name="ANTIRES">     0</i>
   <i name="OMEGAMAX">    -30.00000000</i>
   <i name="OMEGAMIN">    -30.00000000</i>
   <i name="OMEGATL">   -200.00000000</i>
   <i type="int" name="OMEGAGRID">     0</i>
   <i name="CSHIFT">     -0.10000000</i>
   <i type="logical" name="SELFENERGY"> F  </i>
   <i type="logical" name="LSPECTRAL"> F  </i>
   <i type="logical" name="ODDONLYGW"> F  </i>
   <i type="logical" name="EVENONLYGW"> F  </i>
   <i type="int" name="NKREDLFX">     1</i>
   <i type="int" name="NKREDLFY">     1</i>
   <i type="int" name="NKREDLFZ">     1</i>
   <i type="int" name="MAXMEM">  1800</i>
   <i type="int" name="TELESCOPE">     0</i>
   <i type="int" name="TAUPAR">     1</i>
  </separator>
  <separator name="External order field" >
   <i name="OFIELD_KAPPA">      0.00000000</i>
   <v name="OFIELD_K">      0.00000000      0.00000000      0.00000000</v>
   <i name="OFIELD_Q6_NEAR">      0.00000000</i>
   <i name="OFIELD_Q6_FAR">      0.00000000</i>
   <i name="OFIELD_A">      0.00000000</i>
  </separator>
 </parameters>
 <atominfo>
  <atoms>       1 </atoms>
  <types>       1 </types>
  <array name="atoms" >
   <dimension dim="1">ion</dimension>
   <field type="string">element</field>
   <field type="int">atomtype</field>
   <set>
    <rc><c>Ag</c><c>   1</c></rc>
   </set>
  </array>
  <array name="atomtypes" >
   <dimension dim="1">type</dimension>
   <field type="int">atomspertype</field>
   <field type="string">element</field>
   <field>mass</field>
   <field>valence</field>
   <field type="string">pseudopotential</field>
   <set>
    <rc><c>   1</c><c>Ag</c><c>    107.86800000</c><c>     11.00000000</c><c>  PAW_PBE Ag 02Apr2005                  </c></rc>
   </set>
  </array>
 </atominfo>
 <structure name="initialpos" >
  <crystal>
   <varray name="basis" >
    <v>       2.77638407       0.00000000       0.00000000 </v>
    <v>       1.38819203       2.40441913       0.00000000 </v>
    <v>       1.38819203       0.80147304       2.26690810 </v>
   </varray>
   <i name="volume">     15.13295121 </i>
   <varray name="rec_basis" >
    <v>       0.36018072      -0.20795043      -0.14704316 </v>
    <v>       0.00000000       0.41590087      -0.14704316 </v>
    <v>       0.00000000       0.00000000       0.44112948 </v>
   </varray>
  </crystal>
  <varray name="positions" >
   <v>       0.00000000       0.00000000       0.00000000 </v>
  </varray>
 </structure>
 <calculation>
  <scstep>
   <time name="dav">    0.89    0.89</time>
   <time name="total">    0.94    0.95</time>
   <energy>
    <i name="alphaZ">     56.20701853 </i>
    <i name="ewald">  -1017.28626779 </i>
    <i name="hartreedc">   -184.29164794 </i>
    <i name="XCdc">    -10.05026573 </i>
    <i name="pawpsdc">   1003.46214933 </i>
    <i name="pawaedc">   -957.34927423 </i>
    <i name="eentropy">      0.00179668 </i>
    <i name="bandstr">    100.64309507 </i>
    <i name="atom">   1037.24027811 </i>
    <i name="e_fr_energy">     28.57688203 </i>
    <i name="e_wo_entrp">     28.57508535 </i>
    <i name="e_0_energy">     28.57628313 </i>
   </energy>
  </scstep>
  <scstep>
   <time name="dav">    0.78    0.79</time>
   <time name="total">    0.79    0.79</time>
   <energy>
    <i name="e_fr_energy">     -2.64552300 </i>
    <i name="e_wo_entrp">     -2.64702783 </i>
    <i name="e_0_energy">     -2.64602461 </i>
   </energy>
  </scstep>
  <scstep>
   <time name="dav">    0.82    0.83</time>
   <time name="total">    0.83    0.91</time>
   <energy>
    <i name="e_fr_energy">     -2.83975973 </i>
    <i name="e_wo_entrp">     -2.84125054 </i>
    <i name="e_0_energy">     -2.84025667 </i>
   </energy>
  </scstep>
  <scstep>
   <time name="dav">    0.71    0.71</time>
   <time name="total">    0.72    0.73</time>
   <energy>
    <i name="e_fr_energy">     -2.84008937 </i>
    <i name="e_wo_entrp">     -2.84157984 </i>
    <i name="e_0_energy">     -2.84058619 </i>
   </energy>
  </scstep>
  <scstep>
   <time name="dav">    0.67    0.67</time>
   <time name="total">    0.75    0.75</time>
   <energy>
    <i name="e_fr_energy">     -2.84009155 </i>
    <i name="e_wo_entrp">     -2.84158202 </i>
    <i name="e_0_energy">     -2.84058837 </i>
   </energy>
  </scstep>
  <scstep>
   <time name="dav">    0.64    0.64</time>
   <time name="total">    0.74    0.76</time>
   <energy>
    <i name="e_fr_energy">     -2.57288218 </i>
    <i name="e_wo_entrp">     -2.57295203 </i>
    <i name="e_0_energy">     -2.57290547 </i>
   </energy>
  </scstep>
  <scstep>
   <time name="dav">    0.67    0.67</time>
   <time name="total">    0.78    0.86</time>
   <energy>
    <i name="e_fr_energy">     -2.55708740 </i>
    <i name="e_wo_entrp">     -2.55686252 </i>
    <i name="e_0_energy">     -2.55701244 </i>
   </energy>
  </scstep>
  <scstep>
   <time name="dav">    0.64    0.64</time>
   <time name="total">    0.74    0.79</time>
   <energy>
    <i name="e_fr_energy">     -2.55286917 </i>
    <i name="e_wo_entrp">     -2.55263227 </i>
    <i name="e_0_energy">     -2.55279020 </i>
   </energy>
  </scstep>
  <scstep>
   <time name="dav">    0.43    0.43</time>
   <time name="total">    0.47    0.48</time>
   <energy>
    <i name="alphaZ">     56.20701853 </i>
    <i name="ewald">  -1017.28626779 </i>
    <i name="hartreedc">   -170.80852056 </i>
    <i name="XCdc">    -10.53096647 </i>
    <i name="pawpsdc">   1176.13100760 </i>
    <i name="pawaedc">  -1133.57633649 </i>
    <i name="eentropy">     -0.00023592 </i>
    <i name="bandstr">     60.07114826 </i>
    <i name="atom">   1037.24027811 </i>
    <i name="e_fr_energy">     -2.55287473 </i>
    <i name="e_wo_entrp">     -2.55263881 </i>
    <i name="e_0_energy">     -2.55279609 </i>
   </energy>
  </scstep>
  <structure>
   <crystal>
    <varray name="basis" >
     <v>       2.77638407       0.00000000       0.00000000 </v>
     <v>       1.38819203       2.40441913       0.00000000 </v>
     <v>       1.38819203       0.80147304       2.26690810 </v>
    </varray>
    <i name="volume">     15.13295121 </i>
    <varray name="rec_basis" >
     <v>       0.36018072      -0.20795043      -0.14704316 </v>
     <v>       0.00000000       0.41590087      -0.14704316 </v>
     <v>       0.00000000       0.00000000       0.44112948 </v>
    </varray>
   </crystal>
   <varray name="positions" >
    <v>       0.00000000       0.00000000       0.00000000 </v>
   </varray>
  </structure>
  <varray name="forces" >
   <v>       0.00000000       0.00000000       0.00000000 </v>
  </varray>
  <varray name="stress" >
   <v>     224.49637210       0.00000000       0.00000000 </v>
   <v>       0.00000000     224.49637210       0.00000000 </v>
   <v>       0.00000000       0.00000000     224.49637210 </v>
  </varray>
  <energy>
   <i name="e_fr_energy">     -2.55287473 </i>
   <i name="e_wo_entrp">     -2.55279609 </i>
   <i name="e_0_energy">     -0.00023592 </i>
  </energy>
  <time name="totalsc">    7.31    7.70</time>
  <eigenvalues>
   <array>
    <dimension dim="1">band</dimension>
    <dimension dim="2">kpoint</dimension>
    <dimension dim="3">spin</dimension>
    <field>eigene</field>
    <field>occ</field>
    <set>
     <set comment="spin 1">
      <set comment="kpoint 1">
       <r>    1.6485    1.0000 </r>
       <r>    4.8864    1.0000 </r>
       <r>    4.9637    1.0000 </r>
       <r>    4.9637    1.0000 </r>
       <r>    6.1836    1.0000 </r>
       <r>    6.1836    1.0000 </r>
       <r>   26.5170    0.0000 </r>
       <r>   29.7026    0.0000 </r>
       <r>   30.8292    0.0000 </r>
      </set>
      <set comment="kpoint 2">
       <r>    2.3149    1.0000 </r>
       <r>    4.7143    1.0000 </r>
       <r>    5.1390    1.0000 </r>
       <r>    5.1683    1.0000 </r>
       <r>    6.0158    1.0000 </r>
       <r>    6.2877    1.0000 </r>
       <r>   26.1295    0.0000 </r>
       <r>   27.3745    0.0000 </r>
       <r>   30.1564    0.0000 </r>
      </set>
      <set comment="kpoint 3">
       <r>    3.2023    1.0000 </r>
       <r>    5.0331    1.0000 </r>
       <r>    5.2043    1.0000 </r>
       <r>    5.2936    1.0000 </r>
       <r>    6.2231    1.0000 </r>
       <r>    6.8032    1.0000 </r>
       <r>   21.5433    0.0000 </r>
       <r>   26.7715    0.0000 </r>
       <r>   29.7577    0.0000 </r>
      </set>
      <set comment="kpoint 4">
       <r>    3.1525    1.0000 </r>
       <r>    4.9233    1.0000 </r>
       <r>    5.0146    1.0000 </r>
       <r>    6.5961    1.0000 </r>
       <r>    6.8467    1.0000 </r>
       <r>    8.3933    1.0000 </r>
       <r>   16.7884    0.0000 </r>
       <r>   25.9340    0.0000 </r>
       <r>   28.5783    0.0000 </r>
      </set>
      <set comment="kpoint 5">
       <r>    3.0753    1.0000 </r>
       <r>    4.8350    1.0000 </r>
       <r>    4.9632    1.0000 </r>
       <r>    6.8127    1.0000 </r>
       <r>    7.1820    1.0000 </r>
       <r>    9.8151    1.0122 </r>
       <r>   14.6608    0.0000 </r>
       <r>   25.6894    0.0000 </r>
       <r>   28.7104    0.0000 </r>
      </set>
      <set comment="kpoint 6">
       <r>    3.2007    1.0000 </r>
       <r>    4.9667    1.0000 </r>
       <r>    5.1025    1.0000 </r>
       <r>    6.0740    1.0000 </r>
       <r>    6.9452    1.0000 </r>
       <r>    7.5281    1.0000 </r>
       <r>   18.2793    0.0000 </r>
       <r>   26.3307    0.0000 </r>
       <r>   29.0031    0.0000 </r>
      </set>
      <set comment="kpoint 7">
       <r>    3.0080    1.0000 </r>
       <r>    4.7855    1.0000 </r>
       <r>    5.2133    1.0000 </r>
       <r>    5.2454    1.0000 </r>
       <r>    6.2016    1.0000 </r>
       <r>    6.4536    1.0000 </r>
       <r>   23.1980    0.0000 </r>
       <r>   27.2981    0.0000 </r>
       <r>   29.7836    0.0000 </r>
      </set>
      <set comment="kpoint 8">
       <r>    1.9959    1.0000 </r>
       <r>    4.7488    1.0000 </r>
       <r>    5.0910    1.0000 </r>
       <r>    5.0945    1.0000 </r>
       <r>    6.0388    1.0000 </r>
       <r>    6.2596    1.0000 </r>
       <r>   26.6448    0.0000 </r>
       <r>   28.4624    0.0000 </r>
       <r>   30.2130    0.0000 </r>
      </set>
      <set comment="kpoint 9">
       <r>    2.6286    1.0000 </r>
       <r>    4.4808    1.0000 </r>
       <r>    5.3271    1.0000 </r>
       <r>    5.3485    1.0000 </r>
       <r>    5.8698    1.0000 </r>
       <r>    6.4023    1.0000 </r>
       <r>   26.4934    0.0000 </r>
       <r>   27.5845    0.0000 </r>
       <r>   28.8470    0.0000 </r>
      </set>
      <set comment="kpoint 10">
       <r>    3.5056    1.0000 </r>
       <r>    4.2723    1.0000 </r>
       <r>    5.1764    1.0000 </r>
       <r>    5.6606    1.0000 </r>
       <r>    6.2403    1.0000 </r>
       <r>    6.9207    1.0000 </r>
       <r>   23.6609    0.0000 </r>
       <r>   25.6990    0.0000 </r>
       <r>   28.3903    0.0000 </r>
      </set>
      <set comment="kpoint 11">
       <r>    3.5718    1.0000 </r>
       <r>    4.7214    1.0000 </r>
       <r>    5.1104    1.0000 </r>
       <r>    5.5620    1.0000 </r>
       <r>    6.9460    1.0000 </r>
       <r>    8.7936    1.0000 </r>
       <r>   18.6876    0.0000 </r>
       <r>   25.1408    0.0000 </r>
       <r>   26.4161    0.0000 </r>
      </set>
      <set comment="kpoint 12">
       <r>    3.4825    1.0000 </r>
       <r>    4.5524    1.0000 </r>
       <r>    5.3542    1.0000 </r>
       <r>    5.8125    1.0000 </r>
       <r>    7.1321    1.0000 </r>
       <r>   11.4845    0.0000 </r>
       <r>   14.7996    0.0000 </r>
       <r>   24.5919    0.0000 </r>
       <r>   25.7854    0.0000 </r>
      </set>
      <set comment="kpoint 13">
       <r>    3.6036    1.0000 </r>
       <r>    4.6627    1.0000 </r>
       <r>    5.3312    1.0000 </r>
       <r>    5.6138    1.0000 </r>
       <r>    6.7709    1.0000 </r>
       <r>    9.8297    1.0149 </r>
       <r>   17.2125    0.0000 </r>
       <r>   23.9706    0.0000 </r>
       <r>   26.8501    0.0000 </r>
      </set>
      <set comment="kpoint 14">
       <r>    3.7618    1.0000 </r>
       <r>    4.4920    1.0000 </r>
       <r>    5.0287    1.0000 </r>
       <r>    5.6270    1.0000 </r>
       <r>    6.0595    1.0000 </r>
       <r>    7.6487    1.0000 </r>
       <r>   22.0220    0.0000 </r>
       <r>   24.2180    0.0000 </r>
       <r>   28.7304    0.0000 </r>
      </set>
      <set comment="kpoint 15">
       <r>    2.8874    1.0000 </r>
       <r>    4.5334    1.0000 </r>
       <r>    5.2548    1.0000 </r>
       <r>    5.3445    1.0000 </r>
       <r>    5.9449    1.0000 </r>
       <r>    6.5155    1.0000 </r>
       <r>   24.9717    0.0000 </r>
       <r>   26.6587    0.0000 </r>
       <r>   29.6577    0.0000 </r>
      </set>
      <set comment="kpoint 16">
       <r>    3.5679    1.0000 </r>
       <r>    3.8046    1.0000 </r>
       <r>    5.8675    1.0000 </r>
       <r>    6.1353    1.0000 </r>
       <r>    6.8086    1.0000 </r>
       <r>    6.9341    1.0000 </r>
       <r>   24.0380    0.0000 </r>
       <r>   25.1893    0.0000 </r>
       <r>   25.7597    0.0000 </r>
      </set>
      <set comment="kpoint 17">
       <r>    3.5319    1.0000 </r>
       <r>    3.7131    1.0000 </r>
       <r>    5.7600    1.0000 </r>
       <r>    6.4885    1.0000 </r>
       <r>    7.0021    1.0000 </r>
       <r>    9.1691    1.0000 </r>
       <r>   21.1061    0.0000 </r>
       <r>   23.1032    0.0000 </r>
       <r>   23.2607    0.0000 </r>
      </set>
      <set comment="kpoint 18">
       <r>    3.5775    1.0000 </r>
       <r>    4.0895    1.0000 </r>
       <r>    5.4256    1.0000 </r>
       <r>    6.1814    1.0000 </r>
       <r>    7.1964    1.0000 </r>
       <r>   12.5395    0.0000 </r>
       <r>   16.6282    0.0000 </r>
       <r>   21.0777    0.0000 </r>
       <r>   23.4972    0.0000 </r>
      </set>
      <set comment="kpoint 19">
       <r>    3.9384    1.0000 </r>
       <r>    4.4820    1.0000 </r>
       <r>    4.9481    1.0000 </r>
       <r>    5.9682    1.0000 </r>
       <r>    6.8002    1.0000 </r>
       <r>   12.7342    0.0000 </r>
       <r>   16.8614    0.0000 </r>
       <r>   19.6608    0.0000 </r>
       <r>   25.1158    0.0000 </r>
      </set>
      <set comment="kpoint 20">
       <r>    4.0918    1.0000 </r>
       <r>    4.5489    1.0000 </r>
       <r>    4.8501    1.0000 </r>
       <r>    5.7967    1.0000 </r>
       <r>    6.3827    1.0000 </r>
       <r>    9.8229    1.0137 </r>
       <r>   19.2826    0.0000 </r>
       <r>   21.6111    0.0000 </r>
       <r>   26.9410    0.0000 </r>
      </set>
      <set comment="kpoint 21">
       <r>    3.4111    1.0000 </r>
       <r>    4.9738    1.0000 </r>
       <r>    5.2016    1.0000 </r>
       <r>    5.3606    1.0000 </r>
       <r>    6.5506    1.0000 </r>
       <r>    7.5327    1.0000 </r>
       <r>   20.0400    0.0000 </r>
       <r>   26.0322    0.0000 </r>
       <r>   28.3604    0.0000 </r>
      </set>
      <set comment="kpoint 22">
       <r>    3.1278    1.0000 </r>
       <r>    3.2723    1.0000 </r>
       <r>    6.9066    1.0000 </r>
       <r>    6.9373    1.0000 </r>
       <r>    7.2329    1.0000 </r>
       <r>   10.1372    0.7039 </r>
       <r>   20.3338    0.0000 </r>
       <r>   21.5637    0.0000 </r>
       <r>   22.3756    0.0000 </r>
      </set>
      <set comment="kpoint 23">
       <r>    3.1561    1.0000 </r>
       <r>    3.3519    1.0000 </r>
       <r>    6.5573    1.0000 </r>
       <r>    6.8877    1.0000 </r>
       <r>    7.3718    1.0000 </r>
       <r>   12.5957    0.0000 </r>
       <r>   18.3052    0.0000 </r>
       <r>   19.6873    0.0000 </r>
       <r>   21.5361    0.0000 </r>
      </set>
      <set comment="kpoint 24">
       <r>    3.5049    1.0000 </r>
       <r>    3.9701    1.0000 </r>
       <r>    5.5975    1.0000 </r>
       <r>    6.3891    1.0000 </r>
       <r>    7.1615    1.0000 </r>
       <r>   14.5244    0.0000 </r>
       <r>   16.1273    0.0000 </r>
       <r>   18.7241    0.0000 </r>
       <r>   23.0970    0.0000 </r>
      </set>
      <set comment="kpoint 25">
       <r>    3.7700    1.0000 </r>
       <r>    4.3974    1.0000 </r>
       <r>    5.3642    1.0000 </r>
       <r>    5.6745    1.0000 </r>
       <r>    7.0017    1.0000 </r>
       <r>   12.6301    0.0000 </r>
       <r>   15.0759    0.0000 </r>
       <r>   22.1900    0.0000 </r>
       <r>   25.2901    0.0000 </r>
      </set>
      <set comment="kpoint 26">
       <r>    3.2550    1.0000 </r>
       <r>    4.7613    1.0000 </r>
       <r>    5.1179    1.0000 </r>
       <r>    6.2572    1.0000 </r>
       <r>    7.0803    1.0000 </r>
       <r>    9.8292    1.0148 </r>
       <r>   15.5900    0.0000 </r>
       <r>   25.5451    0.0000 </r>
       <r>   27.3635    0.0000 </r>
      </set>
      <set comment="kpoint 27">
       <r>    2.9741    1.0000 </r>
       <r>    3.1529    1.0000 </r>
       <r>    7.0682    1.0000 </r>
       <r>    7.2116    1.0000 </r>
       <r>    7.3874    1.0000 </r>
       <r>   11.6997    0.0000 </r>
       <r>   18.2822    0.0000 </r>
       <r>   20.9477    0.0000 </r>
       <r>   21.7294    0.0000 </r>
      </set>
      <set comment="kpoint 28">
       <r>    3.3038    1.0000 </r>
       <r>    3.4712    1.0000 </r>
       <r>    6.2239    1.0000 </r>
       <r>    6.8080    1.0000 </r>
       <r>    7.2158    1.0000 </r>
       <r>   10.9609    0.0000 </r>
       <r>   20.0060    0.0000 </r>
       <r>   20.6471    0.0000 </r>
       <r>   22.0923    0.0000 </r>
      </set>
      <set comment="kpoint 29">
       <r>    3.6272    1.0000 </r>
       <r>    4.3562    1.0000 </r>
       <r>    5.2160    1.0000 </r>
       <r>    5.8694    1.0000 </r>
       <r>    7.1508    1.0000 </r>
       <r>   10.5184   -0.0205 </r>
       <r>   17.5206    0.0000 </r>
       <r>   23.7631    0.0000 </r>
       <r>   24.2800    0.0000 </r>
      </set>
      <set comment="kpoint 30">
       <r>    3.3793    1.0000 </r>
       <r>    3.5000    1.0000 </r>
       <r>    6.4566    1.0000 </r>
       <r>    6.5687    1.0000 </r>
       <r>    7.0260    1.0000 </r>
       <r>    8.3523    1.0000 </r>
       <r>   22.6435    0.0000 </r>
       <r>   23.0942    0.0000 </r>
       <r>   23.5767    0.0000 </r>
      </set>
      <set comment="kpoint 31">
       <r>    3.7149    1.0000 </r>
       <r>    4.0082    1.0000 </r>
       <r>    5.3056    1.0000 </r>
       <r>    6.0609    1.0000 </r>
       <r>    6.6938    1.0000 </r>
       <r>    7.7444    1.0000 </r>
       <r>   22.3445    0.0000 </r>
       <r>   24.4083    0.0000 </r>
       <r>   26.0134    0.0000 </r>
      </set>
      <set comment="kpoint 32">
       <r>    3.3185    1.0000 </r>
       <r>    4.1461    1.0000 </r>
       <r>    5.4748    1.0000 </r>
       <r>    5.7070    1.0000 </r>
       <r>    6.1104    1.0000 </r>
       <r>    6.5932    1.0000 </r>
       <r>   25.4302    0.0000 </r>
       <r>   27.0339    0.0000 </r>
       <r>   27.3704    0.0000 </r>
      </set>
      <set comment="kpoint 33">
       <r>    2.5730    1.0000 </r>
       <r>    4.7993    1.0000 </r>
       <r>    5.1598    1.0000 </r>
       <r>    5.1598    1.0000 </r>
       <r>    6.1832    1.0000 </r>
       <r>    6.1832    1.0000 </r>
       <r>   24.7006    0.0000 </r>
       <r>   27.4896    0.0000 </r>
       <r>   31.4044    0.0000 </r>
      </set>
      <set comment="kpoint 34">
       <r>    3.3246    1.0000 </r>
       <r>    4.5515    1.0000 </r>
       <r>    5.2279    1.0000 </r>
       <r>    5.4195    1.0000 </r>
       <r>    5.8590    1.0000 </r>
       <r>    6.9496    1.0000 </r>
       <r>   23.4398    0.0000 </r>
       <r>   25.4603    0.0000 </r>
       <r>   30.0988    0.0000 </r>
      </set>
      <set comment="kpoint 35">
       <r>    3.9555    1.0000 </r>
       <r>    4.6073    1.0000 </r>
       <r>    5.0743    1.0000 </r>
       <r>    5.5670    1.0000 </r>
       <r>    6.0684    1.0000 </r>
       <r>    8.5908    1.0000 </r>
       <r>   20.5657    0.0000 </r>
       <r>   22.8332    0.0000 </r>
       <r>   28.5793    0.0000 </r>
      </set>
      <set comment="kpoint 36">
       <r>    3.6643    1.0000 </r>
       <r>    4.5636    1.0000 </r>
       <r>    5.4394    1.0000 </r>
       <r>    5.6160    1.0000 </r>
       <r>    6.8155    1.0000 </r>
       <r>   11.1181    0.0000 </r>
       <r>   15.9847    0.0000 </r>
       <r>   22.9467    0.0000 </r>
       <r>   27.5043    0.0000 </r>
      </set>
      <set comment="kpoint 37">
       <r>    3.5213    1.0000 </r>
       <r>    4.5231    1.0000 </r>
       <r>    5.5099    1.0000 </r>
       <r>    5.5135    1.0000 </r>
       <r>    7.2195    1.0000 </r>
       <r>   11.0096    0.0000 </r>
       <r>   15.8530    0.0000 </r>
       <r>   24.0777    0.0000 </r>
       <r>   26.2821    0.0000 </r>
      </set>
      <set comment="kpoint 38">
       <r>    3.5937    1.0000 </r>
       <r>    4.3986    1.0000 </r>
       <r>    5.1803    1.0000 </r>
       <r>    5.6984    1.0000 </r>
       <r>    7.0283    1.0000 </r>
       <r>    8.0309    1.0000 </r>
       <r>   20.4115    0.0000 </r>
       <r>   25.8639    0.0000 </r>
       <r>   26.0472    0.0000 </r>
      </set>
      <set comment="kpoint 39">
       <r>    3.4298    1.0000 </r>
       <r>    4.6756    1.0000 </r>
       <r>    5.0905    1.0000 </r>
       <r>    5.4251    1.0000 </r>
       <r>    6.7561    1.0000 </r>
       <r>    6.8223    1.0000 </r>
       <r>   21.7631    0.0000 </r>
       <r>   26.9705    0.0000 </r>
       <r>   27.8508    0.0000 </r>
      </set>
      <set comment="kpoint 40">
       <r>    3.9299    1.0000 </r>
       <r>    4.4036    1.0000 </r>
       <r>    4.8172    1.0000 </r>
       <r>    5.9779    1.0000 </r>
       <r>    6.4816    1.0000 </r>
       <r>    8.7170    1.0000 </r>
       <r>   20.7219    0.0000 </r>
       <r>   22.9868    0.0000 </r>
       <r>   26.3529    0.0000 </r>
      </set>
      <set comment="kpoint 41">
       <r>    4.1843    1.0000 </r>
       <r>    4.2944    1.0000 </r>
       <r>    4.7190    1.0000 </r>
       <r>    6.0807    1.0000 </r>
       <r>    6.7740    1.0000 </r>
       <r>   11.4206    0.0000 </r>
       <r>   18.1752    0.0000 </r>
       <r>   20.6313    0.0000 </r>
       <r>   24.2758    0.0000 </r>
      </set>
      <set comment="kpoint 42">
       <r>    3.9146    1.0000 </r>
       <r>    4.2274    1.0000 </r>
       <r>    5.0583    1.0000 </r>
       <r>    5.9866    1.0000 </r>
       <r>    7.1108    1.0000 </r>
       <r>   13.5403    0.0000 </r>
       <r>   15.3497    0.0000 </r>
       <r>   21.6772    0.0000 </r>
       <r>   22.6282    0.0000 </r>
      </set>
      <set comment="kpoint 43">
       <r>    3.8163    1.0000 </r>
       <r>    4.0825    1.0000 </r>
       <r>    5.0721    1.0000 </r>
       <r>    6.3408    1.0000 </r>
       <r>    6.8519    1.0000 </r>
       <r>   10.2398    0.2853 </r>
       <r>   19.5743    0.0000 </r>
       <r>   21.8777    0.0000 </r>
       <r>   23.6368    0.0000 </r>
      </set>
      <set comment="kpoint 44">
       <r>    3.5142    1.0000 </r>
       <r>    4.0237    1.0000 </r>
       <r>    5.5748    1.0000 </r>
       <r>    6.0393    1.0000 </r>
       <r>    7.2154    1.0000 </r>
       <r>    9.6699    1.0008 </r>
       <r>   19.1986    0.0000 </r>
       <r>   23.4137    0.0000 </r>
       <r>   24.5628    0.0000 </r>
      </set>
      <set comment="kpoint 45">
       <r>    3.6231    1.0000 </r>
       <r>    3.8302    1.0000 </r>
       <r>    5.4368    1.0000 </r>
       <r>    6.5368    1.0000 </r>
       <r>    7.1586    1.0000 </r>
       <r>   12.1086    0.0000 </r>
       <r>   18.6725    0.0000 </r>
       <r>   20.7140    0.0000 </r>
       <r>   21.2606    0.0000 </r>
      </set>
      <set comment="kpoint 46">
       <r>    3.7880    1.0000 </r>
       <r>    4.2347    1.0000 </r>
       <r>    4.9139    1.0000 </r>
       <r>    6.2328    1.0000 </r>
       <r>    7.3651    1.0000 </r>
       <r>   15.3822    0.0000 </r>
       <r>   16.8196    0.0000 </r>
       <r>   18.7960    0.0000 </r>
       <r>   19.9019    0.0000 </r>
      </set>
      <set comment="kpoint 47">
       <r>    3.9628    1.0000 </r>
       <r>    4.2437    1.0000 </r>
       <r>    4.7978    1.0000 </r>
       <r>    6.2199    1.0000 </r>
       <r>    7.1328    1.0000 </r>
       <r>   13.3544    0.0000 </r>
       <r>   17.3105    0.0000 </r>
       <r>   19.9202    0.0000 </r>
       <r>   21.5627    0.0000 </r>
      </set>
      <set comment="kpoint 48">
       <r>    3.2546    1.0000 </r>
       <r>    3.5991    1.0000 </r>
       <r>    6.2380    1.0000 </r>
       <r>    6.6647    1.0000 </r>
       <r>    7.2454    1.0000 </r>
       <r>   13.3463    0.0000 </r>
       <r>   17.6735    0.0000 </r>
       <r>   18.5773    0.0000 </r>
       <r>   22.9612    0.0000 </r>
      </set>
      <set comment="kpoint 49">
       <r>    3.4760    1.0000 </r>
       <r>    3.7247    1.0000 </r>
       <r>    5.7149    1.0000 </r>
       <r>    6.5428    1.0000 </r>
       <r>    7.3664    1.0000 </r>
       <r>   13.9211    0.0000 </r>
       <r>   18.0622    0.0000 </r>
       <r>   18.6990    0.0000 </r>
       <r>   20.6961    0.0000 </r>
      </set>
      <set comment="kpoint 50">
       <r>    3.3640    1.0000 </r>
       <r>    3.7381    1.0000 </r>
       <r>    5.9844    1.0000 </r>
       <r>    6.3938    1.0000 </r>
       <r>    7.2815    1.0000 </r>
       <r>   11.5820    0.0000 </r>
       <r>   18.2442    0.0000 </r>
       <r>   20.7250    0.0000 </r>
       <r>   23.5088    0.0000 </r>
      </set>
      <set comment="kpoint 51">
       <r>    3.1463    1.0000 </r>
       <r>    5.0876    1.0000 </r>
       <r>    5.0876    1.0000 </r>
       <r>    6.0516    1.0000 </r>
       <r>    6.6118    1.0000 </r>
       <r>    6.6118    1.0000 </r>
       <r>   19.8105    0.0000 </r>
       <r>   26.7074    0.0000 </r>
       <r>   30.9123    0.0000 </r>
      </set>
      <set comment="kpoint 52">
       <r>    3.4710    1.0000 </r>
       <r>    4.8646    1.0000 </r>
       <r>    5.2457    1.0000 </r>
       <r>    5.6861    1.0000 </r>
       <r>    6.4740    1.0000 </r>
       <r>    8.5004    1.0000 </r>
       <r>   18.5244    0.0000 </r>
       <r>   24.9524    0.0000 </r>
       <r>   28.0867    0.0000 </r>
      </set>
      <set comment="kpoint 53">
       <r>    4.0329    1.0000 </r>
       <r>    4.5718    1.0000 </r>
       <r>    5.0122    1.0000 </r>
       <r>    5.7503    1.0000 </r>
       <r>    6.5111    1.0000 </r>
       <r>   11.1341    0.0000 </r>
       <r>   18.0024    0.0000 </r>
       <r>   20.4727    0.0000 </r>
       <r>   27.8546    0.0000 </r>
      </set>
      <set comment="kpoint 54">
       <r>    3.6553    1.0000 </r>
       <r>    4.3053    1.0000 </r>
       <r>    5.3111    1.0000 </r>
       <r>    6.1479    1.0000 </r>
       <r>    6.9349    1.0000 </r>
       <r>   14.2411    0.0000 </r>
       <r>   15.6454    0.0000 </r>
       <r>   19.0456    0.0000 </r>
       <r>   25.1456    0.0000 </r>
      </set>
      <set comment="kpoint 55">
       <r>    3.3451    1.0000 </r>
       <r>    4.7647    1.0000 </r>
       <r>    5.2508    1.0000 </r>
       <r>    5.7533    1.0000 </r>
       <r>    7.1617    1.0000 </r>
       <r>    9.1214    1.0000 </r>
       <r>   16.9501    0.0000 </r>
       <r>   25.8195    0.0000 </r>
       <r>   27.4468    0.0000 </r>
      </set>
      <set comment="kpoint 56">
       <r>    3.7860    1.0000 </r>
       <r>    4.3942    1.0000 </r>
       <r>    5.2351    1.0000 </r>
       <r>    5.7341    1.0000 </r>
       <r>    7.0136    1.0000 </r>
       <r>   11.5460    0.0000 </r>
       <r>   16.1225    0.0000 </r>
       <r>   23.1666    0.0000 </r>
       <r>   24.4114    0.0000 </r>
      </set>
      <set comment="kpoint 57">
       <r>    3.8611    1.0000 </r>
       <r>    4.3019    1.0000 </r>
       <r>    4.9309    1.0000 </r>
       <r>    6.1528    1.0000 </r>
       <r>    7.1315    1.0000 </r>
       <r>   14.6457    0.0000 </r>
       <r>   15.9468    0.0000 </r>
       <r>   19.1624    0.0000 </r>
       <r>   22.3444    0.0000 </r>
      </set>
      <set comment="kpoint 58">
       <r>    3.6385    1.0000 </r>
       <r>    4.3510    1.0000 </r>
       <r>    5.3697    1.0000 </r>
       <r>    5.8468    1.0000 </r>
       <r>    7.1170    1.0000 </r>
       <r>   13.0708    0.0000 </r>
       <r>   15.1072    0.0000 </r>
       <r>   21.4960    0.0000 </r>
       <r>   25.5192    0.0000 </r>
      </set>
      <set comment="kpoint 59">
       <r>    3.0209    1.0000 </r>
       <r>    4.9168    1.0000 </r>
       <r>    4.9168    1.0000 </r>
       <r>    7.1005    1.0000 </r>
       <r>    7.1005    1.0000 </r>
       <r>    8.7421    1.0000 </r>
       <r>   15.4566    0.0000 </r>
       <r>   25.8156    0.0000 </r>
       <r>   29.5326    0.0000 </r>
      </set>
      <set comment="kpoint 60">
       <r>    3.3019    1.0000 </r>
       <r>    4.6965    1.0000 </r>
       <r>    5.1476    1.0000 </r>
       <r>    6.2492    1.0000 </r>
       <r>    7.0755    1.0000 </r>
       <r>   10.7773   -0.0001 </r>
       <r>   14.7344    0.0000 </r>
       <r>   25.0428    0.0000 </r>
       <r>   27.4440    0.0000 </r>
      </set>
     </set>
    </set>
   </array>
  </eigenvalues>
  <separator name="orbital magnetization" >
   <v name="MAGDIPOLOUT">      0.00000000      0.00000000      0.00000000</v>
  </separator>
  <dos>
   <i name="efermi">     10.18704386 </i>
   <total>
    <array>
     <dimension dim="1">gridpoints</dimension>
     <dimension dim="2">spin</dimension>
     <field>energy</field>
     <field>total</field>
     <field>integrated</field>
     <set>
      <set comment="spin 1">
       <r>    -0.3515     0.0000     0.0000 </r>
       <r>    -0.2390     0.0000     0.0000 </r>
       <r>    -0.1265     0.0000     0.0000 </r>
       <r>    -0.0139     0.0000     0.0000 </r>
       <r>     0.0986     0.0000     0.0000 </r>
       <r>     0.2111     0.0000     0.0000 </r>
       <r>     0.3236     0.0000     0.0000 </r>
       <r>     0.4361     0.0000     0.0000 </r>
       <r>     0.5487     0.0000     0.0000 </r>
       <r>     0.6612     0.0000     0.0000 </r>
       <r>     0.7737     0.0000     0.0000 </r>
       <r>     0.8862     0.0000     0.0000 </r>
       <r>     0.9987     0.0000     0.0000 </r>
       <r>     1.1113     0.0000     0.0000 </r>
       <r>     1.2238    -0.0003     0.0000 </r>
       <r>     1.3363    -0.0014    -0.0002 </r>
       <r>     1.4488    -0.0001    -0.0002 </r>
       <r>     1.5613     0.0125     0.0012 </r>
       <r>     1.6739     0.0267     0.0042 </r>
       <r>     1.7864     0.0227     0.0068 </r>
       <r>     1.8989     0.0393     0.0112 </r>
       <r>     2.0114     0.0831     0.0205 </r>
       <r>     2.1239     0.0777     0.0293 </r>
       <r>     2.2365     0.0622     0.0363 </r>
       <r>     2.3490     0.0831     0.0456 </r>
       <r>     2.4615     0.0797     0.0546 </r>
       <r>     2.5740     0.0875     0.0644 </r>
       <r>     2.6865     0.1031     0.0760 </r>
       <r>     2.7991     0.1176     0.0893 </r>
       <r>     2.9116     0.2397     0.1162 </r>
       <r>     3.0241     0.4711     0.1693 </r>
       <r>     3.1366     0.8569     0.2657 </r>
       <r>     3.2491     1.3825     0.4212 </r>
       <r>     3.3616     1.9117     0.6363 </r>
       <r>     3.4742     2.5200     0.9199 </r>
       <r>     3.5867     2.9872     1.2560 </r>
       <r>     3.6992     2.9352     1.5863 </r>
       <r>     3.8117     2.6400     1.8833 </r>
       <r>     3.9242     2.3236     2.1448 </r>
       <r>     4.0368     1.9691     2.3663 </r>
       <r>     4.1493     1.7061     2.5583 </r>
       <r>     4.2618     1.8149     2.7625 </r>
       <r>     4.3743     2.0834     2.9969 </r>
       <r>     4.4868     2.1282     3.2364 </r>
       <r>     4.5994     2.0021     3.4617 </r>
       <r>     4.7119     1.9542     3.6816 </r>
       <r>     4.8244     2.1182     3.9199 </r>
       <r>     4.9369     2.3716     4.1868 </r>
       <r>     5.0494     2.7795     4.4995 </r>
       <r>     5.1620     3.2458     4.8647 </r>
       <r>     5.2745     3.4358     5.2513 </r>
       <r>     5.3870     3.0766     5.5975 </r>
       <r>     5.4995     2.3457     5.8614 </r>
       <r>     5.6120     2.0814     6.0956 </r>
       <r>     5.7246     2.2881     6.3531 </r>
       <r>     5.8371     2.1919     6.5997 </r>
       <r>     5.9496     2.0420     6.8295 </r>
       <r>     6.0621     2.3384     7.0926 </r>
       <r>     6.1746     2.7181     7.3984 </r>
       <r>     6.2872     2.6247     7.6938 </r>
       <r>     6.3997     2.2462     7.9465 </r>
       <r>     6.5122     2.1990     8.1939 </r>
       <r>     6.6247     2.0315     8.4225 </r>
       <r>     6.7372     1.8163     8.6269 </r>
       <r>     6.8498     2.2375     8.8787 </r>
       <r>     6.9623     2.7250     9.1853 </r>
       <r>     7.0748     3.0615     9.5298 </r>
       <r>     7.1873     3.1676     9.8862 </r>
       <r>     7.2998     2.3891    10.1550 </r>
       <r>     7.4124     1.2696    10.2979 </r>
       <r>     7.5249     0.6533    10.3714 </r>
       <r>     7.6374     0.4712    10.4244 </r>
       <r>     7.7499     0.3828    10.4675 </r>
       <r>     7.8624     0.2119    10.4913 </r>
       <r>     7.9750     0.0869    10.5011 </r>
       <r>     8.0875     0.0680    10.5087 </r>
       <r>     8.2000     0.0546    10.5149 </r>
       <r>     8.3125     0.1077    10.5270 </r>
       <r>     8.4250     0.2204    10.5518 </r>
       <r>     8.5376     0.2660    10.5817 </r>
       <r>     8.6501     0.3209    10.6178 </r>
       <r>     8.7626     0.4123    10.6642 </r>
       <r>     8.8751     0.3193    10.7002 </r>
       <r>     8.9876     0.1288    10.7146 </r>
       <r>     9.1002     0.1634    10.7330 </r>
       <r>     9.2127     0.2652    10.7629 </r>
       <r>     9.3252     0.1576    10.7806 </r>
       <r>     9.4377     0.0034    10.7810 </r>
       <r>     9.5502    -0.0228    10.7784 </r>
       <r>     9.6628     0.1331    10.7934 </r>
       <r>     9.7753     0.5024    10.8499 </r>
       <r>     9.8878     0.6837    10.9268 </r>
       <r>    10.0003     0.3805    10.9697 </r>
       <r>    10.1128     0.1439    10.9858 </r>
       <r>    10.2254     0.2047    11.0089 </r>
       <r>    10.3379     0.2127    11.0328 </r>
       <r>    10.4504     0.1640    11.0513 </r>
       <r>    10.5629     0.1758    11.0710 </r>
       <r>    10.6754     0.1361    11.0864 </r>
       <r>    10.7880     0.1070    11.0984 </r>
       <r>    10.9005     0.2014    11.1211 </r>
       <r>    11.0130     0.3441    11.1598 </r>
       <r>    11.1255     0.3463    11.1987 </r>
       <r>    11.2380     0.1914    11.2203 </r>
       <r>    11.3505     0.1714    11.2396 </r>
       <r>    11.4631     0.4305    11.2880 </r>
       <r>    11.5756     0.5898    11.3544 </r>
       <r>    11.6881     0.4003    11.3994 </r>
       <r>    11.8006     0.1288    11.4139 </r>
       <r>    11.9131     0.0107    11.4151 </r>
       <r>    12.0257     0.0716    11.4232 </r>
       <r>    12.1382     0.1749    11.4428 </r>
       <r>    12.2507     0.1206    11.4564 </r>
       <r>    12.3632     0.0177    11.4584 </r>
       <r>    12.4757     0.1561    11.4760 </r>
       <r>    12.5883     0.5024    11.5325 </r>
       <r>    12.7008     0.6177    11.6020 </r>
       <r>    12.8133     0.3578    11.6423 </r>
       <r>    12.9258     0.0914    11.6525 </r>
       <r>    13.0383     0.0398    11.6570 </r>
       <r>    13.1509     0.0758    11.6655 </r>
       <r>    13.2634     0.1499    11.6824 </r>
       <r>    13.3759     0.2897    11.7150 </r>
       <r>    13.4884     0.3323    11.7524 </r>
       <r>    13.6009     0.2318    11.7785 </r>
       <r>    13.7135     0.0929    11.7889 </r>
       <r>    13.8260     0.0737    11.7972 </r>
       <r>    13.9385     0.1641    11.8157 </r>
       <r>    14.0510     0.1509    11.8327 </r>
       <r>    14.1635     0.0781    11.8414 </r>
       <r>    14.2761     0.0689    11.8492 </r>
       <r>    14.3886     0.0777    11.8579 </r>
       <r>    14.5011     0.1843    11.8787 </r>
       <r>    14.6136     0.4052    11.9243 </r>
       <r>    14.7261     0.5235    11.9832 </r>
       <r>    14.8387     0.3994    12.0281 </r>
       <r>    14.9512     0.2105    12.0518 </r>
       <r>    15.0637     0.2093    12.0753 </r>
       <r>    15.1762     0.2577    12.1043 </r>
       <r>    15.2887     0.2836    12.1363 </r>
       <r>    15.4013     0.3866    12.1798 </r>
       <r>    15.5138     0.3952    12.2242 </r>
       <r>    15.6263     0.3177    12.2600 </r>
       <r>    15.7388     0.2211    12.2849 </r>
       <r>    15.8513     0.2052    12.3079 </r>
       <r>    15.9639     0.3607    12.3485 </r>
       <r>    16.0764     0.5073    12.4056 </r>
       <r>    16.1889     0.4501    12.4563 </r>
       <r>    16.3014     0.1897    12.4776 </r>
       <r>    16.4139    -0.0022    12.4774 </r>
       <r>    16.5265     0.0231    12.4800 </r>
       <r>    16.6390     0.1788    12.5001 </r>
       <r>    16.7515     0.3820    12.5431 </r>
       <r>    16.8640     0.5303    12.6027 </r>
       <r>    16.9765     0.4077    12.6486 </r>
       <r>    17.0891     0.1781    12.6686 </r>
       <r>    17.2016     0.2034    12.6915 </r>
       <r>    17.3141     0.3248    12.7281 </r>
       <r>    17.4266     0.2944    12.7612 </r>
       <r>    17.5391     0.2436    12.7886 </r>
       <r>    17.6517     0.2070    12.8119 </r>
       <r>    17.7642     0.1050    12.8237 </r>
       <r>    17.8767     0.0391    12.8281 </r>
       <r>    17.9892     0.1508    12.8451 </r>
       <r>    18.1017     0.3860    12.8885 </r>
       <r>    18.2143     0.5913    12.9550 </r>
       <r>    18.3268     0.5920    13.0217 </r>
       <r>    18.4393     0.3436    13.0603 </r>
       <r>    18.5518     0.3161    13.0959 </r>
       <r>    18.6643     0.7265    13.1776 </r>
       <r>    18.7768     0.9187    13.2810 </r>
       <r>    18.8894     0.5148    13.3389 </r>
       <r>    19.0019     0.1518    13.3560 </r>
       <r>    19.1144     0.2338    13.3823 </r>
       <r>    19.2269     0.4198    13.4296 </r>
       <r>    19.3394     0.3451    13.4684 </r>
       <r>    19.4520     0.1646    13.4869 </r>
       <r>    19.5645     0.2575    13.5159 </r>
       <r>    19.6770     0.4770    13.5696 </r>
       <r>    19.7895     0.4943    13.6252 </r>
       <r>    19.9020     0.5455    13.6866 </r>
       <r>    20.0146     0.6533    13.7601 </r>
       <r>    20.1271     0.4459    13.8102 </r>
       <r>    20.2396     0.1407    13.8261 </r>
       <r>    20.3521     0.1079    13.8382 </r>
       <r>    20.4646     0.2575    13.8672 </r>
       <r>    20.5772     0.5838    13.9329 </r>
       <r>    20.6897     0.9974    14.0451 </r>
       <r>    20.8022     0.8800    14.1441 </r>
       <r>    20.9147     0.3774    14.1866 </r>
       <r>    21.0272     0.2689    14.2169 </r>
       <r>    21.1398     0.4200    14.2641 </r>
       <r>    21.2523     0.3609    14.3047 </r>
       <r>    21.3648     0.2198    14.3294 </r>
       <r>    21.4773     0.4272    14.3775 </r>
       <r>    21.5898     0.8767    14.4762 </r>
       <r>    21.7024     0.9112    14.5787 </r>
       <r>    21.8149     0.5672    14.6425 </r>
       <r>    21.9274     0.3625    14.6833 </r>
       <r>    22.0399     0.3989    14.7282 </r>
       <r>    22.1524     0.4761    14.7818 </r>
       <r>    22.2650     0.5198    14.8402 </r>
       <r>    22.3775     0.5338    14.9003 </r>
       <r>    22.4900     0.3875    14.9439 </r>
       <r>    22.6025     0.2644    14.9737 </r>
       <r>    22.7150     0.2487    15.0016 </r>
       <r>    22.8276     0.2244    15.0269 </r>
       <r>    22.9401     0.3940    15.0712 </r>
       <r>    23.0526     0.7518    15.1558 </r>
       <r>    23.1651     0.9234    15.2597 </r>
       <r>    23.2776     0.7013    15.3386 </r>
       <r>    23.3902     0.4546    15.3898 </r>
       <r>    23.5027     0.5383    15.4503 </r>
       <r>    23.6152     0.7017    15.5293 </r>
       <r>    23.7277     0.6316    15.6004 </r>
       <r>    23.8402     0.3852    15.6437 </r>
       <r>    23.9528     0.2694    15.6740 </r>
       <r>    24.0653     0.3347    15.7117 </r>
       <r>    24.1778     0.4639    15.7639 </r>
       <r>    24.2903     0.6668    15.8389 </r>
       <r>    24.4028     0.7322    15.9213 </r>
       <r>    24.5154     0.5816    15.9867 </r>
       <r>    24.6279     0.3821    16.0297 </r>
       <r>    24.7404     0.1722    16.0491 </r>
       <r>    24.8529     0.0911    16.0594 </r>
       <r>    24.9654     0.3091    16.0941 </r>
       <r>    25.0780     0.6445    16.1667 </r>
       <r>    25.1905     0.7531    16.2514 </r>
       <r>    25.3030     0.5543    16.3138 </r>
       <r>    25.4155     0.3875    16.3574 </r>
       <r>    25.5280     0.4318    16.4060 </r>
       <r>    25.6406     0.5373    16.4664 </r>
       <r>    25.7531     0.6691    16.5417 </r>
       <r>    25.8656     0.7220    16.6230 </r>
       <r>    25.9781     0.6837    16.6999 </r>
       <r>    26.0906     0.6008    16.7675 </r>
       <r>    26.2032     0.4205    16.8148 </r>
       <r>    26.3157     0.4226    16.8623 </r>
       <r>    26.4282     0.5456    16.9237 </r>
       <r>    26.5407     0.4789    16.9776 </r>
       <r>    26.6532     0.4057    17.0233 </r>
       <r>    26.7657     0.4443    17.0733 </r>
       <r>    26.8783     0.5082    17.1305 </r>
       <r>    26.9908     0.4920    17.1858 </r>
       <r>    27.1033     0.2796    17.2173 </r>
       <r>    27.2158     0.1427    17.2333 </r>
       <r>    27.3283     0.3919    17.2774 </r>
       <r>    27.4409     0.6835    17.3543 </r>
       <r>    27.5534     0.5615    17.4175 </r>
       <r>    27.6659     0.2389    17.4444 </r>
       <r>    27.7784     0.1173    17.4576 </r>
       <r>    27.8909     0.1691    17.4766 </r>
       <r>    28.0035     0.1568    17.4943 </r>
       <r>    28.1160     0.0925    17.5047 </r>
       <r>    28.2285     0.1057    17.5166 </r>
       <r>    28.3410     0.2928    17.5495 </r>
       <r>    28.4535     0.4721    17.6026 </r>
       <r>    28.5661     0.4455    17.6528 </r>
       <r>    28.6786     0.4061    17.6985 </r>
       <r>    28.7911     0.3855    17.7418 </r>
       <r>    28.9036     0.2689    17.7721 </r>
       <r>    29.0161     0.1478    17.7887 </r>
       <r>    29.1287     0.0689    17.7965 </r>
       <r>    29.2412     0.0082    17.7974 </r>
       <r>    29.3537    -0.0166    17.7955 </r>
       <r>    29.4662     0.0069    17.7963 </r>
       <r>    29.5787     0.1302    17.8110 </r>
       <r>    29.6913     0.3199    17.8470 </r>
       <r>    29.8038     0.3461    17.8859 </r>
       <r>    29.9163     0.1685    17.9049 </r>
       <r>    30.0288     0.0900    17.9150 </r>
       <r>    30.1413     0.2054    17.9381 </r>
       <r>    30.2539     0.2416    17.9653 </r>
       <r>    30.3664     0.1093    17.9776 </r>
       <r>    30.4789     0.0035    17.9780 </r>
       <r>    30.5914    -0.0131    17.9765 </r>
       <r>    30.7039     0.0037    17.9769 </r>
       <r>    30.8165     0.0377    17.9812 </r>
       <r>    30.9290     0.0590    17.9878 </r>
       <r>    31.0415     0.0360    17.9918 </r>
       <r>    31.1540     0.0046    17.9924 </r>
       <r>    31.2665     0.0029    17.9927 </r>
       <r>    31.3791     0.0231    17.9953 </r>
       <r>    31.4916     0.0303    17.9987 </r>
       <r>    31.6041     0.0133    18.0002 </r>
       <r>    31.7166     0.0000    18.0002 </r>
       <r>    31.8291    -0.0014    18.0000 </r>
       <r>    31.9417    -0.0003    18.0000 </r>
       <r>    32.0542     0.0000    18.0000 </r>
       <r>    32.1667     0.0000    18.0000 </r>
       <r>    32.2792     0.0000    18.0000 </r>
       <r>    32.3917     0.0000    18.0000 </r>
       <r>    32.5043     0.0000    18.0000 </r>
       <r>    32.6168     0.0000    18.0000 </r>
       <r>    32.7293     0.0000    18.0000 </r>
       <r>    32.8418     0.0000    18.0000 </r>
       <r>    32.9543     0.0000    18.0000 </r>
       <r>    33.0669     0.0000    18.0000 </r>
       <r>    33.1794     0.0000    18.0000 </r>
       <r>    33.2919     0.0000    18.0000 </r>
       <r>    33.4044     0.0000    18.0000 </r>
      </set>
     </set>
    </array>
   </total>
  </dos>
 </calculation>
 <structure name="finalpos" >
  <crystal>
   <varray name="basis" >
    <v>       2.77638407       0.00000000       0.00000000 </v>
    <v>       1.38819203       2.40441913       0.00000000 </v>
    <v>       1.38819203       0.80147304       2.26690810 </v>
   </varray>
   <i name="volume">     15.13295121 </i>
   <varray name="rec_basis" >
    <v>       0.36018072      -0.20795043      -0.14704316 </v>
    <v>       0.00000000       0.41590087      -0.14704316 </v>
    <v>       0.00000000       0.00000000       0.44112948 </v>
   </varray>
  </crystal>
  <varray name="positions" >
   <v>       0.00000000       0.00000000       0.00000000 </v>
  </varray>
 </structure>
</modeling>
