unknown system                          
           1
     2.776384    0.000000    0.000000
     1.388192    2.404419    0.000000
     1.388192    0.801473    2.266908
   Ag
   1
Direct configuration=     1
   0.00000000  0.00000000  0.00000000
