unknown system                          
   1.00000000000000     
     2.834225    0.000000    0.000000
     1.417113    2.454511    0.000000
     1.417113    0.818170    2.314135
   Ag
     1
Direct
  0.000000  0.000000  0.000000
 
   28   28   28
  124.70      120.67      109.65      94.183      77.031      60.165      44.672      31.236      20.504      12.929    
  8.3834      6.0115      4.6710      3.9614      3.7450      3.9614      4.6710      6.0115      8.3834      12.929    
  20.504      31.236      44.672      60.165      77.031      94.183      109.65      120.67      120.67      113.16    
  99.987      83.849      67.085      51.151      36.885      24.960      15.978      10.133      6.9122      5.2008    
  4.2116      3.7713      3.7721      4.2124      5.2000      6.9114      10.134      15.978      24.959      36.884    
  51.152      67.085      83.849      99.986      113.16      120.67      109.65      99.986      86.289      70.873    
  55.470      41.157      28.715      18.841      11.963      7.8922      5.7512      4.5041      3.8473      3.6469    
  3.8473      4.5041      5.7512      7.8921      11.963      18.841      28.715      41.157      55.470      70.873    
  86.289      99.986      109.65      113.16      94.183      83.849      70.872      56.990      43.462      31.219    
  21.061      13.580      8.8504      6.2694      4.8035      3.9551      3.5805      3.5799      3.9545      4.8041    
  6.2700      8.8498      13.579      21.062      31.219      43.462      56.989      70.872      83.849      94.183    
  99.986      99.987      77.031      67.085      55.470      43.462      32.099      22.273      14.690      9.6224    
  6.7132      5.0742      4.0714      3.5538      3.3975      3.5538      4.0715      5.0743      6.7132      9.6223    
  14.690      22.273      32.099      43.462      55.470      67.085      77.031      83.849      86.288      83.849    
  60.165      51.152      41.157      31.219      22.273      15.086      10.055      7.0183      5.2785      4.1752    
  3.5503      3.2780      3.2783      3.5506      4.1749      5.2782      7.0185      10.055      15.086      22.273    
  31.219      41.158      51.152      60.165      67.085      70.872      70.872      67.085      44.671      36.884    
  28.715      21.061      14.690      10.055      7.1279      5.3877      4.2454      3.5559      3.2046      3.0988    
  3.2046      3.5559      4.2454      5.3877      7.1279      10.055      14.690      21.061      28.715      36.884    
  44.671      51.152      55.470      56.990      55.470      51.152      31.236      24.960      18.841      13.579    
  9.6223      7.0184      5.3879      4.2702      3.5606      3.1645      2.9920      2.9919      3.1644      3.5606    
  4.2703      5.3878      7.0184      9.6223      13.579      18.841      24.960      31.236      36.884      41.158    
  43.462      43.462      41.158      36.884      20.504      15.978      11.963      8.8501      6.7129      5.2783    
  4.2454      3.5606      3.1516      2.9419      2.8782      2.9419      3.1516      3.5606      4.2454      5.2783    
  6.7129      8.8501      11.963      15.978      20.504      24.960      28.715      31.219      32.098      31.219    
  28.715      24.960      12.929      10.133      7.8927      6.2697      5.0743      4.1751      3.5558      3.1645    
  2.9419      2.8426      2.8426      2.9419      3.1645      3.5558      4.1751      5.0743      6.2698      7.8927    
  10.133      12.929      15.978      18.841      21.062      22.273      22.273      21.062      18.841      15.978    
  8.3829      6.9119      5.7512      4.8038      4.0718      3.5505      3.2046      2.9919      2.8782      2.8426    
  2.8782      2.9920      3.2046      3.5505      4.0718      4.8038      5.7513      6.9119      8.3829      10.133    
  11.963      13.579      14.690      15.086      14.690      13.579      11.963      10.133      6.0115      5.2005    
  4.5036      3.9548      3.5538      3.2781      3.0989      2.9919      2.9419      2.9419      2.9920      3.0989    
  3.2781      3.5538      3.9548      4.5036      5.2005      6.0116      6.9119      7.8927      8.8501      9.6223    
  10.055      10.055      9.6223      8.8501      7.8926      6.9118      4.6715      4.2120      3.8473      3.5802    
  3.3972      3.2781      3.2046      3.1645      3.1516      3.1645      3.2046      3.2781      3.3972      3.5802    
  3.8473      4.2120      4.6716      5.2005      5.7513      6.2698      6.7129      7.0184      7.1280      7.0184    
  6.7129      6.2697      5.7512      5.2004      3.9614      3.7716      3.6474      3.5802      3.5538      3.5505    
  3.5558      3.5606      3.5606      3.5558      3.5505      3.5538      3.5802      3.6474      3.7716      3.9614    
  4.2120      4.5036      4.8038      5.0743      5.2783      5.3879      5.3879      5.2783      5.0743      4.8038    
  4.5036      4.2120      3.7445      3.7717      3.8473      3.9548      4.0718      4.1751      4.2454      4.2703    
  4.2454      4.1751      4.0718      3.9548      3.8473      3.7716      3.7444      3.7716      3.8473      3.9548    
  4.0718      4.1751      4.2454      4.2703      4.2454      4.1751      4.0718      3.9548      3.8473      3.7717    
  3.9614      4.2120      4.5036      4.8038      5.0743      5.2783      5.3879      5.3879      5.2783      5.0743    
  4.8038      4.5036      4.2120      3.9614      3.7716      3.6474      3.5802      3.5538      3.5505      3.5558    
  3.5606      3.5606      3.5558      3.5505      3.5538      3.5802      3.6474      3.7716      4.6715      5.2004    
  5.7512      6.2697      6.7129      7.0184      7.1280      7.0184      6.7129      6.2698      5.7513      5.2005    
  4.6716      4.2120      3.8473      3.5802      3.3972      3.2781      3.2046      3.1645      3.1516      3.1645    
  3.2046      3.2781      3.3972      3.5802      3.8473      4.2120      6.0115      6.9118      7.8926      8.8501    
  9.6223      10.055      10.055      9.6223      8.8501      7.8927      6.9119      6.0116      5.2005      4.5036    
  3.9548      3.5538      3.2781      3.0989      2.9920      2.9419      2.9419      2.9919      3.0989      3.2781    
  3.5538      3.9548      4.5036      5.2005      8.3829      10.133      11.963      13.579      14.690      15.086    
  14.690      13.579      11.963      10.133      8.3829      6.9119      5.7513      4.8038      4.0718      3.5505    
  3.2046      2.9920      2.8782      2.8426      2.8782      2.9919      3.2046      3.5505      4.0718      4.8038    
  5.7512      6.9119      12.929      15.978      18.841      21.062      22.273      22.273      21.062      18.841    
  15.978      12.929      10.133      7.8927      6.2698      5.0743      4.1751      3.5558      3.1645      2.9419    
  2.8426      2.8426      2.9419      3.1645      3.5558      4.1751      5.0743      6.2697      7.8927      10.133    
  20.504      24.960      28.715      31.219      32.098      31.219      28.715      24.960      20.504      15.978    
  11.963      8.8501      6.7129      5.2783      4.2454      3.5606      3.1516      2.9419      2.8782      2.9419    
  3.1516      3.5606      4.2454      5.2783      6.7129      8.8501      11.963      15.978      31.236      36.884    
  41.158      43.462      43.462      41.158      36.884      31.236      24.960      18.841      13.579      9.6223    
  7.0184      5.3878      4.2703      3.5606      3.1644      2.9919      2.9920      3.1645      3.5606      4.2702    
  5.3879      7.0184      9.6223      13.579      18.841      24.960      44.671      51.152      55.470      56.990    
  55.470      51.152      44.671      36.884      28.715      21.061      14.690      10.055      7.1279      5.3877    
  4.2454      3.5559      3.2046      3.0988      3.2046      3.5559      4.2454      5.3877      7.1279      10.055    
  14.690      21.061      28.715      36.884      60.165      67.085      70.872      70.872      67.085      60.165    
  51.152      41.158      31.219      22.273      15.086      10.055      7.0185      5.2782      4.1749      3.5506    
  3.2783      3.2780      3.5503      4.1752      5.2785      7.0183      10.055      15.086      22.273      31.219    
  41.157      51.152      77.031      83.849      86.288      83.849      77.031      67.085      55.470      43.462    
  32.099      22.273      14.690      9.6223      6.7132      5.0743      4.0715      3.5538      3.3975      3.5538    
  4.0714      5.0742      6.7132      9.6224      14.690      22.273      32.099      43.462      55.470      67.085    
  94.183      99.987      99.986      94.183      83.849      70.872      56.989      43.462      31.219      21.062    
  13.579      8.8498      6.2700      4.8041      3.9545      3.5799      3.5805      3.9551      4.8035      6.2694    
  8.8504      13.580      21.061      31.219      43.462      56.990      70.872      83.849      109.65      113.16    
  109.65      99.986      86.289      70.873      55.470      41.157      28.715      18.841      11.963      7.8921    
  5.7512      4.5041      3.8473      3.6469      3.8473      4.5041      5.7512      7.8922      11.963      18.841    
  28.715      41.157      55.470      70.873      86.289      99.986      120.67      120.67      113.16      99.986    
  83.849      67.085      51.152      36.884      24.959      15.978      10.134      6.9114      5.2000      4.2124    
  3.7721      3.7713      4.2116      5.2008      6.9122      10.133      15.978      24.960      36.885      51.151    
  67.085      83.849      99.987      113.16      120.67      113.16      99.987      83.849      67.085      51.151    
  36.885      24.960      15.978      10.133      6.9122      5.2008      4.2116      3.7713      3.7721      4.2124    
  5.2000      6.9114      10.134      15.978      24.959      36.884      51.152      67.085      83.849      99.986    
  113.16      120.67      113.16      103.06      88.788      72.815      56.947      42.263      29.510      19.369    
  12.271      8.0512      5.8392      4.5627      3.8886      3.6828      3.8886      4.5627      5.8392      8.0512    
  12.271      19.369      29.510      42.263      56.947      72.815      88.788      103.06      113.16      116.84    
  99.987      88.788      74.849      60.088      45.826      32.962      22.260      14.318      9.2475      6.4750    
  4.9363      4.0444      3.6494      3.6487      4.0437      4.9369      6.4757      9.2469      14.317      22.261    
  32.962      45.826      60.088      74.849      88.788      99.986      106.31      106.31      83.849      72.815    
  60.088      47.074      34.823      24.203      15.925      10.316      7.0704      5.2927      4.2147      3.6553    
  3.4861      3.6554      4.2148      5.2927      7.0704      10.316      15.925      24.203      34.823      47.074    
  60.088      72.815      83.849      91.488      94.236      91.488      67.085      56.948      45.826      34.822    
  24.886      16.810      11.059      7.5442      5.5862      4.3750      3.6838      3.3817      3.3821      3.6842    
  4.3747      5.5858      7.5445      11.059      16.810      24.886      34.823      45.826      56.947      67.085    
  74.959      79.305      79.304      74.959      51.152      42.263      32.962      24.202      16.810      11.325    
  7.8098      5.7785      4.4977      3.7179      3.3193      3.1992      3.3193      3.7179      4.4977      5.7785    
  7.8098      11.325      16.810      24.202      32.962      42.263      51.152      58.604      63.611      65.382    
  63.611      58.604      36.884      29.510      22.261      15.926      11.059      7.8098      5.8461      4.5643    
  3.7430      3.2841      3.0845      3.0843      3.2839      3.7432      4.5645      5.8460      7.8097      11.059    
  15.926      22.261      29.510      36.884      43.509      48.534      51.253      51.253      48.534      43.508    
  24.960      19.368      14.317      10.316      7.5443      5.7787      4.5644      3.7524      3.2679      3.0210    
  2.9464      3.0209      3.2679      3.7524      4.5644      5.7787      7.5443      10.316      14.317      19.368    
  24.960      30.398      34.955      37.988      39.052      37.988      34.954      30.398      15.978      12.271    
  9.2472      7.0700      5.5861      4.4977      3.7431      3.2680      3.0006      2.8827      2.8826      3.0006    
  3.2679      3.7431      4.4977      5.5860      7.0700      9.2472      12.271      15.978      19.944      23.616    
  26.439      27.972      27.972      26.439      23.616      19.944      10.133      8.0518      6.4753      5.2927    
  4.3748      3.7177      3.2840      3.0209      2.8827      2.8399      2.8827      3.0209      3.2840      3.7177    
  4.3748      5.2927      6.4754      8.0518      10.133      12.598      15.135      17.345      18.850      19.383    
  18.850      17.345      15.135      12.598      6.9118      5.8393      4.9366      4.2151      3.6840      3.3193    
  3.0844      2.9463      2.8826      2.8827      2.9464      3.0844      3.3193      3.6840      4.2151      4.9366    
  5.8393      6.9119      8.2114      9.6716      11.097      12.238      12.873      12.873      12.238      11.097    
  9.6716      8.2113      5.2004      4.5622      4.0441      3.6553      3.3819      3.1993      3.0844      3.0209    
  3.0006      3.0210      3.0845      3.1994      3.3819      3.6553      4.0440      4.5621      5.2005      5.9192    
  6.6774      7.4477      8.1364      8.6186      8.7923      8.6186      8.1364      7.4476      6.6773      5.9191    
  4.2120      3.8886      3.6491      3.4858      3.3819      3.3193      3.2840      3.2679      3.2679      3.2840    
  3.3193      3.3819      3.4858      3.6490      3.8886      4.2120      4.6100      5.0537      5.4980      5.8907    
  6.1884      6.3516      6.3516      6.1884      5.8907      5.4979      5.0537      4.6100      3.7717      3.6833    
  3.6491      3.6554      3.6840      3.7177      3.7431      3.7524      3.7431      3.7177      3.6840      3.6553    
  3.6490      3.6833      3.7716      3.9180      4.1131      4.3355      4.5555      4.7411      4.8648      4.9082    
  4.8648      4.7411      4.5555      4.3356      4.1132      3.9180      3.7717      3.8886      4.0440      4.2151    
  4.3748      4.4977      4.5644      4.5644      4.4977      4.3748      4.2151      4.0440      3.8886      3.7716    
  3.7068      3.6956      3.7283      3.7876      3.8535      3.9082      3.9388      3.9388      3.9082      3.8535    
  3.7876      3.7284      3.6957      3.7068      4.2120      4.5622      4.9366      5.2927      5.5860      5.7787    
  5.8460      5.7787      5.5860      5.2928      4.9366      4.5621      4.2120      3.9180      3.6956      3.5440    
  3.4505      3.3981      3.3709      3.3583      3.3546      3.3583      3.3709      3.3981      3.4505      3.5440    
  3.6956      3.9180      5.2004      5.8392      6.4754      7.0700      7.5443      7.8097      7.8098      7.5444    
  7.0700      6.4754      5.8393      5.2005      4.6100      4.1131      3.7284      3.4506      3.2608      3.1372    
  3.0629      3.0277      3.0277      3.0628      3.1372      3.2608      3.4506      3.7283      4.1131      4.6100    
  6.9118      8.0517      9.2472      10.316      11.059      11.325      11.059      10.316      9.2472      8.0518    
  6.9119      5.9192      5.0538      4.3355      3.7876      3.3981      3.1373      2.9738      2.8845      2.8561    
  2.8845      2.9738      3.1372      3.3981      3.7876      4.3355      5.0537      5.9191      10.133      12.271    
  14.317      15.926      16.810      16.810      15.926      14.317      12.271      10.133      8.2114      6.6774    
  5.4980      4.5554      3.8535      3.3709      3.0629      2.8845      2.8035      2.8035      2.8845      3.0628    
  3.3709      3.8535      4.5555      5.4979      6.6773      8.2114      15.978      19.368      22.261      24.203    
  24.886      24.203      22.261      19.368      15.978      12.598      9.6716      7.4477      5.8907      4.7411    
  3.9082      3.3583      3.0277      2.8561      2.8035      2.8561      3.0277      3.3583      3.9082      4.7410    
  5.8907      7.4476      9.6716      12.598      24.960      29.510      32.962      34.823      34.823      32.962    
  29.510      24.960      19.944      15.135      11.097      8.1364      6.1884      4.8648      3.9388      3.3546    
  3.0277      2.8845      2.8845      3.0277      3.3546      3.9388      4.8648      6.1884      8.1364      11.097    
  15.135      19.945      36.884      42.263      45.826      47.074      45.826      42.263      36.884      30.398    
  23.616      17.345      12.238      8.6187      6.3516      4.9081      3.9388      3.3583      3.0628      2.9737    
  3.0629      3.3584      3.9388      4.9081      6.3516      8.6187      12.238      17.345      23.616      30.398    
  51.152      56.947      60.088      60.088      56.948      51.152      43.509      34.955      26.439      18.850    
  12.873      8.7924      6.3517      4.8647      3.9081      3.3710      3.1373      3.1371      3.3708      3.9083    
  4.8649      6.3515      8.7922      12.873      18.850      26.439      34.954      43.509      67.085      72.815    
  74.848      72.815      67.085      58.604      48.534      37.988      27.972      19.383      12.873      8.6186    
  6.1886      4.7410      3.8533      3.3981      3.2610      3.3981      3.8533      4.7410      6.1886      8.6186    
  12.873      19.383      27.972      37.988      48.534      58.604      83.849      88.788      88.788      83.849    
  74.959      63.611      51.253      39.052      27.972      18.850      12.238      8.1362      5.8909      4.5557    
  3.7874      3.4503      3.4508      3.7879      4.5552      5.8904      8.1366      12.239      18.849      27.972    
  39.053      51.254      63.611      74.958      99.987      103.06      99.987      91.488      79.305      65.382    
  51.253      37.987      26.439      17.345      11.097      7.4472      5.4979      4.3360      3.7284      3.5436    
  3.7284      4.3360      5.4979      7.4472      11.097      17.345      26.439      37.987      51.253      65.382    
  79.305      91.488      113.16      113.16      106.31      94.236      79.304      63.611      48.534      34.954    
  23.616      15.135      9.6719      6.6769      5.0534      4.1135      3.6960      3.6953      4.1128      5.0541    
  6.6777      9.6713      15.135      23.617      34.955      48.534      63.611      79.305      94.237      106.31    
  120.67      116.84      106.31      91.488      74.958      58.604      43.509      30.398      19.944      12.598    
  8.2119      5.9191      4.6095      3.9180      3.7074      3.9180      4.6095      5.9191      8.2119      12.598    
  19.944      30.398      43.509      58.604      74.958      91.488      106.31      116.84      109.65      99.986    
  86.289      70.873      55.470      41.157      28.715      18.841      11.963      7.8922      5.7512      4.5041    
  3.8473      3.6469      3.8473      4.5041      5.7512      7.8921      11.963      18.841      28.715      41.157    
  55.470      70.873      86.289      99.986      109.65      113.16      99.987      88.788      74.849      60.088    
  45.826      32.962      22.260      14.318      9.2475      6.4750      4.9363      4.0444      3.6494      3.6487    
  4.0437      4.9369      6.4757      9.2469      14.317      22.261      32.962      45.826      60.088      74.849    
  88.788      99.986      106.31      106.31      86.289      74.849      61.713      48.337      35.774      24.879    
  16.362      10.564      7.1976      5.3688      4.2647      3.6906      3.5169      3.6907      4.2647      5.3688    
  7.1976      10.564      16.362      24.880      35.774      48.337      61.713      74.849      86.289      94.236    
  97.100      94.236      70.872      60.088      48.337      36.758      26.298      17.753      11.616      7.8363    
  5.7503      4.4821      3.7551      3.4368      3.4373      3.7556      4.4817      5.7499      7.8367      11.616    
  17.752      26.297      36.758      48.337      60.088      70.872      79.305      83.981      83.981      79.304    
  55.470      45.826      35.774      26.297      18.244      12.200      8.2819      6.0354      4.6640      3.8244    
  3.3942      3.2644      3.3942      3.8245      4.6640      6.0353      8.2819      12.200      18.244      26.297    
  35.774      45.826      55.470      63.611      69.115      71.070      69.115      63.611      41.158      32.962    
  24.880      17.752      12.200      8.4421      6.1906      4.7850      3.8802      3.3732      3.1527      3.1525    
  3.3730      3.8804      4.7852      6.1904      8.4419      12.200      17.752      24.879      32.962      41.158    
  48.534      54.155      57.208      57.208      54.155      48.534      28.715      22.261      16.363      11.616    
  8.2818      6.1905      4.8276      3.9115      3.3638      3.0852      3.0012      3.0852      3.3637      3.9115    
  4.8276      6.1905      8.2818      11.616      16.363      22.261      28.715      34.954      40.175      43.653    
  44.876      43.653      40.175      34.954      18.841      14.317      10.564      7.8365      6.0355      4.7851    
  3.9115      3.3612      3.0532      2.9183      2.9183      3.0532      3.3612      3.9115      4.7851      6.0356    
  7.8365      10.564      14.317      18.841      23.616      27.998      31.351      33.169      33.169      31.351    
  27.998      23.616      11.963      9.2472      7.1972      5.7501      4.6640      3.8803      3.3638      3.0532    
  2.8919      2.8424      2.8919      3.0532      3.3638      3.8803      4.6640      5.7501      7.1972      9.2472    
  11.963      15.135      18.354      21.128      23.005      23.669      23.005      21.128      18.354      15.135    
  7.8927      6.4754      5.3688      4.4818      3.8242      3.3731      3.0852      2.9182      2.8423      2.8424    
  2.9183      3.0851      3.3731      3.8242      4.4819      5.3688      6.4754      7.8927      9.6716      11.668    
  13.597      15.126      15.972      15.972      15.126      13.597      11.668      9.6716      5.7512      4.9366    
  4.2651      3.7553      3.3942      3.1526      3.0012      2.9183      2.8918      2.9183      3.0012      3.1526    
  3.3942      3.7553      4.2651      4.9366      5.7512      6.6774      7.7318      8.8406      9.8385      10.536    
  10.786      10.536      9.8385      8.8406      7.7318      6.6774      4.5036      4.0440      3.6907      3.4371    
  3.2646      3.1526      3.0852      3.0532      3.0532      3.0852      3.1526      3.2646      3.4370      3.6906    
  4.0440      4.5036      5.0537      5.6537      6.2493      6.8009      7.2404      7.4866      7.4866      7.2404    
  6.8009      6.2492      5.6537      5.0537      3.8473      3.6491      3.5165      3.4371      3.3942      3.3731    
  3.3638      3.3612      3.3638      3.3731      3.3942      3.4371      3.5165      3.6490      3.8473      4.1131    
  4.4333      4.7789      5.1103      5.3850      5.5662      5.6295      5.5662      5.3850      5.1103      4.7789    
  4.4333      4.1131      3.6474      3.6491      3.6907      3.7554      3.8243      3.8803      3.9115      3.9115    
  3.8803      3.8242      3.7553      3.6906      3.6490      3.6474      3.6956      3.7930      3.9278      4.0793    
  4.2226      4.3338      4.3944      4.3944      4.3338      4.2226      4.0793      3.9279      3.7931      3.6956    
  3.8473      4.0440      4.2651      4.4819      4.6640      4.7851      4.8275      4.7851      4.6640      4.4819    
  4.2651      4.0440      3.8473      3.6956      3.5983      3.5524      3.5459      3.5625      3.5864      3.6056    
  3.6128      3.6056      3.5865      3.5625      3.5459      3.5524      3.5983      3.6957      4.5036      4.9366    
  5.3688      5.7501      6.0355      6.1905      6.1905      6.0356      5.7501      5.3688      4.9366      4.5036    
  4.1131      3.7930      3.5524      3.3846      3.2744      3.2053      3.1649      3.1461      3.1460      3.1649    
  3.2053      3.2744      3.3846      3.5524      3.7931      4.1132      5.7512      6.4753      7.1972      7.8365    
  8.2819      8.4419      8.2819      7.8365      7.1972      6.4754      5.7513      5.0538      4.4333      3.9278    
  3.5459      3.2744      3.0906      2.9731      2.9075      2.8863      2.9075      2.9731      3.0906      3.2744    
  3.5459      3.9278      4.4333      5.0537      7.8927      9.2472      10.564      11.616      12.200      12.200    
  11.616      10.564      9.2472      7.8927      6.6774      5.6537      4.7789      4.0793      3.5625      3.2053    
  2.9731      2.8352      2.7711      2.7712      2.8352      2.9731      3.2053      3.5626      4.0793      4.7789    
  5.6536      6.6773      11.963      14.317      16.363      17.752      18.244      17.752      16.363      14.317    
  11.963      9.6716      7.7317      6.2492      5.1103      4.2226      3.5864      3.1649      2.9075      2.7711    
  2.7287      2.7711      2.9075      3.1649      3.5864      4.2226      5.1103      6.2492      7.7317      9.6716    
  18.841      22.261      24.880      26.297      26.297      24.880      22.261      18.841      15.135      11.668    
  8.8406      6.8009      5.3850      4.3338      3.6056      3.1460      2.8863      2.7711      2.7711      2.8863    
  3.1461      3.6056      4.3338      5.3849      6.8009      8.8407      11.668      15.135      28.715      32.962    
  35.774      36.758      35.774      32.962      28.715      23.616      18.354      13.597      9.8385      7.2404    
  5.5662      4.3944      3.6128      3.1461      2.9075      2.8352      2.9075      3.1461      3.6128      4.3944    
  5.5662      7.2404      9.8386      13.597      18.354      23.616      41.158      45.826      48.337      48.337    
  45.826      41.158      34.954      27.998      21.128      15.126      10.536      7.4866      5.6295      4.3943    
  3.6056      3.1649      2.9732      2.9731      3.1648      3.6057      4.3944      5.6294      7.4865      10.536    
  15.126      21.128      27.998      34.954      55.470      60.088      61.713      60.088      55.470      48.534    
  40.175      31.351      23.006      15.972      10.786      7.4866      5.5664      4.3338      3.5863      3.2053    
  3.0907      3.2053      3.5863      4.3338      5.5663      7.4866      10.786      15.972      23.006      31.351    
  40.175      48.534      70.872      74.849      74.849      70.872      63.611      54.155      43.653      33.168    
  23.669      15.972      10.536      7.2402      5.3851      4.2228      3.5624      3.2742      3.2745      3.5627    
  4.2224      5.3848      7.2405      10.536      15.972      23.669      33.169      43.654      54.154      63.611    
  86.289      88.788      86.289      79.304      69.115      57.209      44.876      33.168      23.005      15.127    
  9.8385      6.8005      5.1103      4.0796      3.5459      3.3843      3.5459      4.0796      5.1103      6.8005    
  9.8386      15.127      23.005      33.168      44.876      57.209      69.115      79.304      99.986      99.987    
  94.237      83.981      71.069      57.209      43.654      31.350      21.128      13.597      8.8409      6.2489    
  4.7786      3.9281      3.5527      3.5521      3.9275      4.7792      6.2495      8.8404      13.597      21.129    
  31.351      43.653      57.208      71.070      83.981      94.236      109.65      106.31      97.101      83.981    
  69.115      54.155      40.175      27.998      18.353      11.668      7.7322      5.6536      4.4328      3.7931    
  3.5988      3.7931      4.4328      5.6536      7.7322      11.668      18.353      27.998      40.175      54.155    
  69.115      83.981      97.101      106.31      113.16      106.31      94.237      79.305      63.611      48.534    
  34.955      23.617      15.135      9.6713      6.6777      5.0541      4.1128      3.6953      3.6960      4.1135    
  5.0534      6.6769      9.6719      15.135      23.616      34.954      48.534      63.611      79.304      94.236    
  106.31      113.16      94.183      83.849      70.872      56.990      43.462      31.219      21.061      13.580    
  8.8504      6.2694      4.8035      3.9551      3.5805      3.5799      3.9545      4.8041      6.2700      8.8498    
  13.579      21.062      31.219      43.462      56.989      70.872      83.849      94.183      99.986      99.987    
  83.849      72.815      60.088      47.074      34.823      24.203      15.925      10.316      7.0704      5.2927    
  4.2147      3.6553      3.4861      3.6554      4.2148      5.2927      7.0704      10.316      15.925      24.203    
  34.823      47.074      60.088      72.815      83.849      91.488      94.236      91.488      70.872      60.088    
  48.337      36.758      26.298      17.753      11.616      7.8363      5.7503      4.4821      3.7551      3.4368    
  3.4373      3.7556      4.4817      5.7499      7.8367      11.616      17.752      26.297      36.758      48.337    
  60.088      70.872      79.305      83.981      83.981      79.304      56.990      47.074      36.758      27.032    
  18.751      12.512      8.4510      6.1255      4.7220      3.8617      3.4202      3.2871      3.4203      3.8617    