unknown system                          
   1.00000000000000     
     2.834225    0.000000    0.000000
     1.417113    2.454511    0.000000
     1.417113    0.818170    2.314135
   Ag
     1
Direct
  0.000000  0.000000  0.000000
 
   28   28   28
 0.12469736636E+03 0.12067276074E+03 0.10964993333E+03 0.94183103890E+02 0.77030620352E+02
 0.60165152667E+02 0.44671635528E+02 0.31236401323E+02 0.20503890306E+02 0.12928835834E+02
 0.83834180155E+01 0.60115104237E+01 0.46710054539E+01 0.39614252236E+01 0.37450221902E+01
 0.39614252236E+01 0.46710054539E+01 0.60115104237E+01 0.83834180155E+01 0.12928835834E+02
 0.20503890306E+02 0.31236401323E+02 0.44671635528E+02 0.60165152667E+02 0.77030620352E+02
 0.94183103890E+02 0.10964993333E+03 0.12067276074E+03 0.12067238160E+03 0.11315931798E+03
 0.99987340538E+02 0.83849437089E+02 0.67084609841E+02 0.51151276992E+02 0.36884575235E+02
 0.24960068208E+02 0.15977511005E+02 0.10132879550E+02 0.69122278929E+01 0.52008205395E+01
 0.42116003704E+01 0.37712671894E+01 0.37720694686E+01 0.42124224891E+01 0.52000473095E+01
 0.69113954243E+01 0.10133602660E+02 0.15978297555E+02 0.24959330954E+02 0.36883793837E+02
 0.51152012978E+02 0.67085366796E+02 0.83848610751E+02 0.99986366467E+02 0.11315979955E+03
 0.12067301004E+03 0.10964937846E+03 0.99986478546E+02 0.86288838303E+02 0.70872665115E+02
 0.55470126458E+02 0.41157137015E+02 0.28714648932E+02 0.18841380224E+02 0.11962956090E+02
 0.78921836281E+01 0.57512093552E+01 0.45040884169E+01 0.38472707609E+01 0.36469210712E+01
 0.38472937435E+01 0.45041111686E+01 0.57512059516E+01 0.78921487079E+01 0.11962911237E+02
 0.18841356543E+02 0.28714657007E+02 0.41157151756E+02 0.55470097345E+02 0.70872554771E+02
 0.86288653416E+02 0.99986279265E+02 0.10964924896E+03 0.11315990325E+03 0.94183388478E+02
 0.83848773356E+02 0.70871897681E+02 0.56989889743E+02 0.43462495356E+02 0.31218861199E+02
 0.21061309646E+02 0.13579584528E+02 0.88504343125E+01 0.62694062190E+01 0.48035160460E+01
 0.39550941586E+01 0.35804955426E+01 0.35799186104E+01 0.39545230581E+01 0.48041122905E+01
 0.62700029407E+01 0.88498414146E+01 0.13578949008E+02 0.21061844470E+02 0.31219465768E+02
 0.43461964847E+02 0.56989274233E+02 0.70872353528E+02 0.83849263454E+02 0.94182818483E+02
 0.99986477523E+02 0.99987030200E+02 0.77031481620E+02 0.67084988987E+02 0.55469820059E+02
 0.43462210769E+02 0.32098691748E+02 0.22273221573E+02 0.14690000710E+02 0.96223644267E+01
 0.67132437546E+01 0.50742474797E+01 0.40714456974E+01 0.35537755160E+01 0.33975247533E+01
 0.35537947696E+01 0.40714692994E+01 0.50742572816E+01 0.67132328357E+01 0.96223438342E+01
 0.14689991500E+02 0.22273240467E+02 0.32098737437E+02 0.43462264919E+02 0.55469860481E+02
 0.67085001958E+02 0.77031473438E+02 0.83848978867E+02 0.86288347017E+02 0.83848989896E+02
 0.60165299540E+02 0.51151803011E+02 0.41157472987E+02 0.31218998913E+02 0.22273368446E+02
 0.15086092009E+02 0.10054516917E+02 0.70182570411E+01 0.52784600506E+01 0.41752125074E+01
 0.35503038428E+01 0.32779707644E+01 0.32782792004E+01 0.35506246306E+01 0.41749272516E+01
 0.52781502548E+01 0.70185367381E+01 0.10054824065E+02 0.15085829733E+02 0.22273104152E+02
 0.31219326604E+02 0.41157828377E+02 0.51151590704E+02 0.60165063580E+02 0.67085148831E+02
 0.70872215814E+02 0.70871925051E+02 0.67084840777E+02 0.44671080658E+02 0.36884314844E+02
 0.28714648932E+02 0.21061475480E+02 0.14690307109E+02 0.10054782544E+02 0.71279345726E+01
 0.53877303102E+01 0.42454170763E+01 0.35559373593E+01 0.32046256146E+01 0.30988098566E+01
 0.32046179645E+01 0.35559313775E+01 0.42454215127E+01 0.53877441885E+01 0.71279438243E+01
 0.10054773287E+02 0.14690276466E+02 0.21061442593E+02 0.28714644557E+02 0.36884359765E+02
 0.44671171710E+02 0.51151618823E+02 0.55470166880E+02 0.56989677574E+02 0.55470097345E+02
 0.51151515079E+02 0.31236366840E+02 0.24959723546E+02 0.18840931861E+02 0.13579265457E+02
 0.96223299436E+01 0.70184383974E+01 0.53878835470E+01 0.42702484805E+01 0.35605583547E+01
 0.31645204715E+01 0.29920127082E+01 0.29919241120E+01 0.31644159581E+01 0.35606172779E+01
 0.42703401999E+01 0.53878399028E+01 0.70183578809E+01 0.96223367277E+01 0.13579240871E+02
 0.18840785199E+02 0.24959639275E+02 0.31236483445E+02 0.36884275494E+02 0.41157647021E+02
 0.43462230436E+02 0.43462283917E+02 0.41157669085E+02 0.36884138499E+02 0.20504443005E+02
 0.15977890151E+02 0.11962958261E+02 0.88501497251E+01 0.67129351846E+01 0.52783131773E+01
 0.42454192474E+01 0.35605928377E+01 0.31516453380E+01 0.29419335067E+01 0.28782341729E+01
 0.29419122659E+01 0.31516174271E+01 0.35605773631E+01 0.42454229138E+01 0.52783272228E+01
 0.67129376957E+01 0.88501234916E+01 0.11962903271E+02 0.15977819769E+02 0.20504381943E+02
 0.24959673758E+02 0.28714646728E+02 0.31219179731E+02 0.32098428867E+02 0.31219181180E+02
 0.28714659178E+02 0.24959710100E+02 0.12928851284E+02 0.10133274144E+02 0.78926510251E+01
 0.62696753573E+01 0.50742629288E+01 0.41750810833E+01 0.35558031564E+01 0.31644705393E+01
 0.29419489559E+01 0.28426112513E+01 0.28425796838E+01 0.29419106418E+01 0.31644798437E+01
 0.35558138010E+01 0.41750542047E+01 0.50742717983E+01 0.62697656839E+01 0.78927214036E+01
 0.10133226924E+02 0.12928739948E+02 0.15977835218E+02 0.18840835131E+02 0.21061545897E+02
 0.22273235577E+02 0.22273255917E+02 0.21061575332E+02 0.18840858248E+02 0.15977902960E+02
 0.83828631461E+01 0.69118770425E+01 0.57512093552E+01 0.48037723387E+01 0.40717520964E+01
 0.35504790109E+01 0.32046256146E+01 0.29919499303E+01 0.28782320018E+01 0.28426234276E+01
 0.28782407881E+01 0.29919616823E+01 0.32046339724E+01 0.35504845694E+01 0.40717638308E+01
 0.48037982878E+01 0.57512560100E+01 0.69119300309E+01 0.83829061246E+01 0.10133214078E+02
 0.11962901099E+02 0.13579234683E+02 0.14690276466E+02 0.15085948311E+02 0.14690297899E+02
 0.13579261890E+02 0.11962911237E+02 0.10133195220E+02 0.60114933404E+01 0.52004584777E+01
 0.45036226540E+01 0.39547924878E+01 0.35537584327E+01 0.32781347210E+01 0.30989456937E+01
 0.29919415117E+01 0.29418951825E+01 0.29419431743E+01 0.29920070604E+01 0.30989429781E+01
 0.32781186184E+01 0.35537872029E+01 0.39548004705E+01 0.45035688125E+01 0.52004615854E+01
 0.60116370260E+01 0.69119188195E+01 0.78926888711E+01 0.88501064082E+01 0.96223193280E+01
 0.10054671617E+02 0.10054660108E+02 0.96223267508E+01 0.88501430854E+01 0.78926486374E+01
 0.69117574862E+01 0.46715444360E+01 0.42119795156E+01 0.38472866482E+01 0.35802109552E+01
 0.33972024671E+01 0.32781323271E+01 0.32046338518E+01 0.31644504411E+01 0.31516037109E+01
 0.31644643945E+01 0.32046498597E+01 0.32781357018E+01 0.33971881851E+01 0.35801866755E+01
 0.38472724586E+01 0.42119899030E+01 0.46715804140E+01 0.52004786687E+01 0.57512718973E+01
 0.62697502348E+01 0.67129239795E+01 0.70183923640E+01 0.71279597116E+01 0.70183898648E+01
 0.67129105494E+01 0.62697183533E+01 0.57512218389E+01 0.52004264546E+01 0.39614199312E+01
 0.37716410422E+01 0.36474092098E+01 0.35802084903E+01 0.35537894772E+01 0.35504724649E+01
 0.35558179161E+01 0.35605880873E+01 0.35605720707E+01 0.35557930595E+01 0.35504615671E+01
 0.35537754119E+01 0.35801813830E+01 0.36473954999E+01 0.37716475952E+01 0.39614016447E+01
 0.42119846106E+01 0.45035806035E+01 0.48038318750E+01 0.50742925399E+01 0.52783219304E+01
 0.53878690934E+01 0.53878682347E+01 0.52783024205E+01 0.50742519892E+01 0.48038224106E+01
 0.45036336148E+01 0.42120486364E+01 0.37444673208E+01 0.37716903234E+01 0.38472937435E+01
 0.39548076456E+01 0.40717756984E+01 0.41750741249E+01 0.42454215127E+01 0.42703057169E+01
 0.42454207427E+01 0.41750696539E+01 0.40717638308E+01 0.39547833872E+01 0.38472565713E+01
 0.37716423028E+01 0.37444147897E+01 0.37716423028E+01 0.38472565713E+01 0.39547833872E+01
 0.40717638308E+01 0.41750696539E+01 0.42454207427E+01 0.42703057169E+01 0.42454215127E+01
 0.41750741249E+01 0.40717756984E+01 0.39548076456E+01 0.38472937435E+01 0.37716903234E+01
 0.39614199312E+01 0.42120486364E+01 0.45036336148E+01 0.48038224106E+01 0.50742519892E+01
 0.52783024205E+01 0.53878682347E+01 0.53878690934E+01 0.52783219304E+01 0.50742925399E+01
 0.48038318750E+01 0.45035806035E+01 0.42119846106E+01 0.39614016447E+01 0.37716475952E+01
 0.36473954999E+01 0.35801813830E+01 0.35537754119E+01 0.35504615671E+01 0.35557930595E+01
 0.35605720707E+01 0.35605880873E+01 0.35558179161E+01 0.35504724649E+01 0.35537894772E+01
 0.35802084903E+01 0.36474092098E+01 0.37716410422E+01 0.46715444360E+01 0.52004264546E+01
 0.57512218389E+01 0.62697183533E+01 0.67129105494E+01 0.70183898648E+01 0.71279597116E+01
 0.70183923640E+01 0.67129239795E+01 0.62697502348E+01 0.57512718973E+01 0.52004786687E+01
 0.46715804140E+01 0.42119899030E+01 0.38472724586E+01 0.35801866755E+01 0.33971881851E+01
 0.32781357018E+01 0.32046498597E+01 0.31644643945E+01 0.31516037109E+01 0.31644504411E+01
 0.32046338518E+01 0.32781323271E+01 0.33972024671E+01 0.35802109552E+01 0.38472866482E+01
 0.42119795156E+01 0.60114933404E+01 0.69117574862E+01 0.78926486374E+01 0.88501430854E+01
 0.96223267508E+01 0.10054660108E+02 0.10054671617E+02 0.96223193280E+01 0.88501064082E+01
 0.78926888711E+01 0.69119188195E+01 0.60116370260E+01 0.52004615854E+01 0.45035688125E+01
 0.39548004705E+01 0.35537872029E+01 0.32781186184E+01 0.30989429781E+01 0.29920070604E+01
 0.29419431743E+01 0.29418951825E+01 0.29919415117E+01 0.30989456937E+01 0.32781347210E+01
 0.35537584327E+01 0.39547924878E+01 0.45036226540E+01 0.52004584777E+01 0.83828631461E+01
 0.10133195220E+02 0.11962911237E+02 0.13579261890E+02 0.14690297899E+02 0.15085948311E+02
 0.14690276466E+02 0.13579234683E+02 0.11962901099E+02 0.10133214078E+02 0.83829061246E+01
 0.69119300309E+01 0.57512560100E+01 0.48037982878E+01 0.40717638308E+01 0.35504845694E+01
 0.32046339724E+01 0.29919616823E+01 0.28782407881E+01 0.28426234276E+01 0.28782320018E+01
 0.29919499303E+01 0.32046256146E+01 0.35504790109E+01 0.40717520964E+01 0.48037723387E+01
 0.57512093552E+01 0.69118770425E+01 0.12928851284E+02 0.15977902960E+02 0.18840858248E+02
 0.21061575332E+02 0.22273255917E+02 0.22273235577E+02 0.21061545897E+02 0.18840835131E+02
 0.15977835218E+02 0.12928739948E+02 0.10133226924E+02 0.78927214036E+01 0.62697656839E+01
 0.50742717983E+01 0.41750542047E+01 0.35558138010E+01 0.31644798437E+01 0.29419106418E+01
 0.28425796838E+01 0.28426112513E+01 0.29419489559E+01 0.31644705393E+01 0.35558031564E+01
 0.41750810833E+01 0.50742629288E+01 0.62696753573E+01 0.78926510251E+01 0.10133274144E+02
 0.20504443005E+02 0.24959710100E+02 0.28714659178E+02 0.31219181180E+02 0.32098428867E+02
 0.31219179731E+02 0.28714646728E+02 0.24959673758E+02 0.20504381943E+02 0.15977819769E+02
 0.11962903271E+02 0.88501234916E+01 0.67129376957E+01 0.52783272228E+01 0.42454229138E+01
 0.35605773631E+01 0.31516174271E+01 0.29419122659E+01 0.28782341729E+01 0.29419335067E+01
 0.31516453380E+01 0.35605928377E+01 0.42454192474E+01 0.52783131773E+01 0.67129351846E+01
 0.88501497251E+01 0.11962958261E+02 0.15977890151E+02 0.31236366840E+02 0.36884138499E+02
 0.41157669085E+02 0.43462283917E+02 0.43462230436E+02 0.41157647021E+02 0.36884275494E+02
 0.31236483445E+02 0.24959639275E+02 0.18840785199E+02 0.13579240871E+02 0.96223367277E+01
 0.70183578809E+01 0.53878399028E+01 0.42703401999E+01 0.35606172779E+01 0.31644159581E+01
 0.29919241120E+01 0.29920127082E+01 0.31645204715E+01 0.35605583547E+01 0.42702484805E+01
 0.53878835470E+01 0.70184383974E+01 0.96223299436E+01 0.13579265457E+02 0.18840931861E+02
 0.24959723546E+02 0.44671080658E+02 0.51151515079E+02 0.55470097345E+02 0.56989677574E+02
 0.55470166880E+02 0.51151618823E+02 0.44671171710E+02 0.36884359765E+02 0.28714644557E+02
 0.21061442593E+02 0.14690276466E+02 0.10054773287E+02 0.71279438243E+01 0.53877441885E+01
 0.42454215127E+01 0.35559313775E+01 0.32046179645E+01 0.30988098566E+01 0.32046256146E+01
 0.35559373593E+01 0.42454170763E+01 0.53877303102E+01 0.71279345726E+01 0.10054782544E+02
 0.14690307109E+02 0.21061475480E+02 0.28714648932E+02 0.36884314844E+02 0.60165299540E+02
 0.67084840777E+02 0.70871925051E+02 0.70872215814E+02 0.67085148831E+02 0.60165063580E+02
 0.51151590704E+02 0.41157828377E+02 0.31219326604E+02 0.22273104152E+02 0.15085829733E+02
 0.10054824065E+02 0.70185367381E+01 0.52781502548E+01 0.41749272516E+01 0.35506246306E+01
 0.32782792004E+01 0.32779707644E+01 0.35503038428E+01 0.41752125074E+01 0.52784600506E+01
 0.70182570411E+01 0.10054516917E+02 0.15086092009E+02 0.22273368446E+02 0.31218998913E+02
 0.41157472987E+02 0.51151803011E+02 0.77031481620E+02 0.83848989896E+02 0.86288347017E+02
 0.83848978867E+02 0.77031473438E+02 0.67085001958E+02 0.55469860481E+02 0.43462264919E+02
 0.32098737437E+02 0.22273240467E+02 0.14689991500E+02 0.96223438342E+01 0.67132328357E+01
 0.50742572816E+01 0.40714692994E+01 0.35537947696E+01 0.33975247533E+01 0.35537755160E+01
 0.40714456974E+01 0.50742474797E+01 0.67132437546E+01 0.96223644267E+01 0.14690000710E+02
 0.22273221573E+02 0.32098691748E+02 0.43462210769E+02 0.55469820059E+02 0.67084988987E+02
 0.94183388478E+02 0.99987030200E+02 0.99986477523E+02 0.94182818483E+02 0.83849263454E+02
 0.70872353528E+02 0.56989274233E+02 0.43461964847E+02 0.31219465768E+02 0.21061844470E+02
 0.13578949008E+02 0.88498414146E+01 0.62700029407E+01 0.48041122905E+01 0.39545230581E+01
 0.35799186104E+01 0.35804955426E+01 0.39550941586E+01 0.48035160460E+01 0.62694062190E+01
 0.88504343125E+01 0.13579584528E+02 0.21061309646E+02 0.31218861199E+02 0.43462495356E+02
 0.56989889743E+02 0.70871897681E+02 0.83848773356E+02 0.10964937846E+03 0.11315990325E+03
 0.10964924896E+03 0.99986279265E+02 0.86288653416E+02 0.70872554771E+02 0.55470097345E+02
 0.41157151756E+02 0.28714657007E+02 0.18841356543E+02 0.11962911237E+02 0.78921487079E+01
 0.57512059516E+01 0.45041111686E+01 0.38472937435E+01 0.36469210712E+01 0.38472707609E+01
 0.45040884169E+01 0.57512093552E+01 0.78921836281E+01 0.11962956090E+02 0.18841380224E+02
 0.28714648932E+02 0.41157137015E+02 0.55470126458E+02 0.70872665115E+02 0.86288838303E+02
 0.99986478546E+02 0.12067238160E+03 0.12067301004E+03 0.11315979955E+03 0.99986366467E+02
 0.83848610751E+02 0.67085366796E+02 0.51152012978E+02 0.36883793837E+02 0.24959330954E+02
 0.15978297555E+02 0.10133602660E+02 0.69113954243E+01 0.52000473095E+01 0.42124224891E+01
 0.37720694686E+01 0.37712671894E+01 0.42116003704E+01 0.52008205395E+01 0.69122278929E+01
 0.10132879550E+02 0.15977511005E+02 0.24960068208E+02 0.36884575235E+02 0.51151276992E+02
 0.67084609841E+02 0.83849437089E+02 0.99987340538E+02 0.11315931798E+03 0.12067238160E+03
 0.11315931798E+03 0.99987340538E+02 0.83849437089E+02 0.67084609841E+02 0.51151276992E+02
 0.36884575235E+02 0.24960068208E+02 0.15977511005E+02 0.10132879550E+02 0.69122278929E+01
 0.52008205395E+01 0.42116003704E+01 0.37712671894E+01 0.37720694686E+01 0.42124224891E+01
 0.52000473095E+01 0.69113954243E+01 0.10133602660E+02 0.15978297555E+02 0.24959330954E+02
 0.36883793837E+02 0.51152012978E+02 0.67085366796E+02 0.83848610751E+02 0.99986366467E+02
 0.11315979955E+03 0.12067301004E+03 0.11315970700E+03 0.10305645347E+03 0.88788340007E+02
 0.72815405378E+02 0.56947351705E+02 0.42262665098E+02 0.29510326297E+02 0.19368769766E+02
 0.12271378366E+02 0.80512318608E+01 0.58392274845E+01 0.45626717264E+01 0.38886141889E+01
 0.36827626622E+01 0.38886200852E+01 0.45626830175E+01 0.58392259621E+01 0.80511967295E+01
 0.12271322490E+02 0.19368734169E+02 0.29510339939E+02 0.42262718713E+02 0.56947387680E+02
 0.72815321723E+02 0.88788048756E+02 0.10305601740E+03 0.11315936945E+03 0.11683700835E+03
 0.99987278673E+02 0.88788032622E+02 0.74848534679E+02 0.60088497378E+02 0.45826165835E+02
 0.32961609423E+02 0.22260398578E+02 0.14317504423E+02 0.92475266447E+01 0.64750238901E+01
 0.49362542063E+01 0.40443717426E+01 0.36493830024E+01 0.36487405490E+01 0.40437308343E+01
 0.49369048501E+01 0.64756750203E+01 0.92468586986E+01 0.14316788932E+02 0.22260989307E+02
 0.32962303016E+02 0.45825624315E+02 0.60087833179E+02 0.74848953557E+02 0.88788366190E+02
 0.99986409503E+02 0.10631095131E+03 0.10631166984E+03 0.83849411115E+02 0.72814899359E+02
 0.60087828455E+02 0.47074035279E+02 0.34823016446E+02 0.24202589972E+02 0.15925223250E+02
 0.10316377063E+02 0.70703894415E+01 0.52927292748E+01 0.42147203711E+01 0.36553177826E+01
 0.34861453093E+01 0.36553570048E+01 0.42147529698E+01 0.52927243229E+01 0.70703598622E+01
 0.10316348601E+02 0.15925210282E+02 0.24202600572E+02 0.34823046530E+02 0.47074055814E+02
 0.60087803514E+02 0.72814834415E+02 0.83849346499E+02 0.91488173883E+02 0.94236057924E+02
 0.91488208346E+02 0.67085173684E+02 0.56947532320E+02 0.45825665496E+02 0.34822474420E+02
 0.24886347821E+02 0.16810201338E+02 0.11059033718E+02 0.75441886381E+01 0.55862355786E+01
 0.43750168243E+01 0.36837985473E+01 0.33816942635E+01 0.33820942501E+01 0.36842187548E+01
 0.43746555292E+01 0.55858321991E+01 0.75445350917E+01 0.11059413888E+02 0.16809848987E+02
 0.24885988225E+02 0.34822878376E+02 0.45826119337E+02 0.56947255640E+02 0.67084840720E+02
 0.74958874061E+02 0.79304834912E+02 0.79304486438E+02 0.74958527380E+02 0.51151661714E+02
 0.42263339604E+02 0.32961920219E+02 0.24202420592E+02 0.16810016421E+02 0.11325491284E+02
 0.78097747727E+01 0.57785323721E+01 0.44977407437E+01 0.37178536759E+01 0.33192810871E+01
 0.31991689262E+01 0.33192853951E+01 0.37178582713E+01 0.44977426512E+01 0.57785290701E+01
 0.78097631742E+01 0.11325477594E+02 0.16810020560E+02 0.24202461988E+02 0.32961992361E+02
 0.42263417764E+02 0.51151725767E+02 0.58604273692E+02 0.63611089078E+02 0.65381730558E+02
 0.63611065426E+02 0.58604228671E+02 0.36884134237E+02 0.29510390905E+02 0.22260775249E+02
 0.15925517718E+02 0.11059154924E+02 0.78098359697E+01 0.58460778092E+01 0.45643211297E+01
 0.37430420442E+01 0.32840519288E+01 0.30844785194E+01 0.30843430327E+01 0.32839078951E+01
 0.37431612522E+01 0.45644584170E+01 0.58459619732E+01 0.78096940870E+01 0.11059239743E+02
 0.15925598567E+02 0.22260619404E+02 0.29510259933E+02 0.36884297489E+02 0.43508664149E+02
 0.48534025796E+02 0.51253410928E+02 0.51253485550E+02 0.48534040987E+02 0.43508445856E+02
 0.24959655540E+02 0.19368259882E+02 0.14317219618E+02 0.10316378351E+02 0.75443439704E+01
 0.57786978869E+01 0.45644107797E+01 0.37524225313E+01 0.32679272823E+01 0.30209619916E+01
 0.29463550344E+01 0.30209409913E+01 0.32679054133E+01 0.37524196097E+01 0.45644263941E+01
 0.57787100513E+01 0.75443174113E+01 0.10316296469E+02 0.14317104239E+02 0.19368170132E+02
 0.24959640339E+02 0.30398041555E+02 0.34954521473E+02 0.37987751219E+02 0.39052341095E+02
 0.37987706044E+02 0.34954450636E+02 0.30397989442E+02 0.15977896957E+02 0.12271378532E+02
 0.92472026032E+01 0.70700262710E+01 0.55860576871E+01 0.44977452118E+01 0.37430971361E+01
 0.32679508063E+01 0.30006288998E+01 0.28826655399E+01 0.28826414073E+01 0.30005924329E+01
 0.32679453171E+01 0.37431055747E+01 0.44977355019E+01 0.55860477077E+01 0.70700299497E+01
 0.92471854534E+01 0.12271311446E+02 0.15977813964E+02 0.19944444107E+02 0.23616234286E+02
 0.26439018846E+02 0.27972197168E+02 0.27972215526E+02 0.26439051228E+02 0.23616263729E+02
 0.19944494937E+02 0.10133265222E+02 0.80517641703E+01 0.64753333662E+01 0.52927017226E+01
 0.43748328568E+01 0.37177114789E+01 0.32839894123E+01 0.30209383046E+01 0.28826620221E+01
 0.28398706096E+01 0.28826541711E+01 0.30209317114E+01 0.32839807854E+01 0.37176964428E+01
 0.43748298419E+01 0.52927439809E+01 0.64754103481E+01 0.80518143674E+01 0.10133243760E+02
 0.12597856018E+02 0.15134894564E+02 0.17344904947E+02 0.18849609494E+02 0.19382971388E+02
 0.18849632569E+02 0.17344963194E+02 0.15134984515E+02 0.12597938550E+02 0.69118298911E+01
 0.58392503469E+01 0.49365882282E+01 0.42150569308E+01 0.36839627497E+01 0.33193005393E+01
 0.30844358706E+01 0.29463074765E+01 0.28826293117E+01 0.28826749428E+01 0.29463617034E+01
 0.30844129743E+01 0.33192699557E+01 0.36840077425E+01 0.42151117431E+01 0.49365844377E+01
 0.58392657056E+01 0.69119238824E+01 0.82114127305E+01 0.96715870113E+01 0.11097128527E+02
 0.12238333998E+02 0.12873242910E+02 0.12873218913E+02 0.12238325811E+02 0.11097185112E+02
 0.96716131093E+01 0.82113339395E+01 0.52004144446E+01 0.45621623604E+01 0.40440807095E+01
 0.36553188983E+01 0.33818561691E+01 0.31993349590E+01 0.30844264547E+01 0.30209408187E+01
 0.30005754822E+01 0.30209559164E+01 0.30844543041E+01 0.31993696113E+01 0.33818798645E+01
 0.36553097859E+01 0.40440438587E+01 0.45621399402E+01 0.52004584003E+01 0.59191996558E+01
 0.66774160702E+01 0.74476503487E+01 0.81363719944E+01 0.86186079631E+01 0.87923303996E+01
 0.86186318671E+01 0.81363802790E+01 0.74476010248E+01 0.66773101964E+01 0.59190928200E+01
 0.42119707075E+01 0.38885990491E+01 0.36490745215E+01 0.34857973903E+01 0.33819007441E+01
 0.33192745578E+01 0.32839785476E+01 0.32679441887E+01 0.32679297026E+01 0.32839689978E+01
 0.33192976119E+01 0.33819120667E+01 0.34857565298E+01 0.36490254591E+01 0.38885992986E+01
 0.42119987675E+01 0.46100271648E+01 0.50537456064E+01 0.54979742239E+01 0.58907254429E+01
 0.61884197347E+01 0.63515873502E+01 0.63516009869E+01 0.61884263457E+01 0.58906908600E+01
 0.54979292911E+01 0.50537270971E+01 0.46100132177E+01 0.37716524923E+01 0.36832646404E+01
 0.36490500303E+01 0.36553594200E+01 0.36840344183E+01 0.37176857431E+01 0.37430987409E+01
 0.37524258902E+01 0.37431016880E+01 0.37176661116E+01 0.36839869760E+01 0.36553155485E+01
 0.36490368777E+01 0.36832689371E+01 0.37716445857E+01 0.39179789964E+01 0.41131257461E+01
 0.43355446364E+01 0.45554619755E+01 0.47410688553E+01 0.48647912157E+01 0.49081724999E+01
 0.48647660994E+01 0.47410503871E+01 0.45554759856E+01 0.43355887642E+01 0.41131767423E+01
 0.39180131438E+01 0.37716885669E+01 0.38886252672E+01 0.40440474171E+01 0.42151068710E+01
 0.43748368317E+01 0.44977444229E+01 0.45643983290E+01 0.45643961777E+01 0.44977405063E+01
 0.43748329331E+01 0.42150943039E+01 0.40440198702E+01 0.38885887424E+01 0.37716476717E+01
 0.37067925122E+01 0.36956075952E+01 0.37283394833E+01 0.37876080628E+01 0.38535072470E+01
 0.39081980290E+01 0.39388382114E+01 0.39388427291E+01 0.39082045145E+01 0.38535093136E+01
 0.37876194810E+01 0.37283734012E+01 0.36956563436E+01 0.37068401457E+01 0.42120271741E+01
 0.45621734858E+01 0.49366029266E+01 0.52927254939E+01 0.55860048845E+01 0.57786949373E+01
 0.58460345049E+01 0.57787099339E+01 0.55860415368E+01 0.52927680203E+01 0.49366148772E+01
 0.45621399954E+01 0.42119773452E+01 0.39179730682E+01 0.36956206934E+01 0.35439921593E+01
 0.34505470131E+01 0.33980926967E+01 0.33709337237E+01 0.33582779368E+01 0.33545886137E+01
 0.33582825001E+01 0.33709407498E+01 0.33980992052E+01 0.34505472600E+01 0.35439880124E+01
 0.36956262249E+01 0.39180039651E+01 0.52004133444E+01 0.58392065371E+01 0.64753708585E+01
 0.70700162454E+01 0.75443372836E+01 0.78097480517E+01 0.78097690585E+01 0.75443604889E+01
 0.70700100330E+01 0.64753942753E+01 0.58392976810E+01 0.52004949047E+01 0.46100228626E+01
 0.41131100423E+01 0.37283543586E+01 0.34505727375E+01 0.32607778382E+01 0.31372351253E+01
 0.30628746372E+01 0.30277007091E+01 0.30276629981E+01 0.30628236408E+01 0.31372441749E+01
 0.32608061696E+01 0.34505631458E+01 0.37283408912E+01 0.41131290643E+01 0.46100175199E+01
 0.69117805014E+01 0.80516771941E+01 0.92471682954E+01 0.10316372419E+02 0.11059229325E+02
 0.11325283553E+02 0.11059177347E+02 0.10316324153E+02 0.92471813409E+01 0.80517625225E+01
 0.69119032314E+01 0.59192268217E+01 0.50537567992E+01 0.43355231227E+01 0.37876050923E+01
 0.33981200281E+01 0.31372506032E+01 0.29738130577E+01 0.28845208886E+01 0.28561433756E+01
 0.28845075463E+01 0.29737836632E+01 0.31372225510E+01 0.33981254049E+01 0.37876418982E+01
 0.43355479232E+01 0.50537205259E+01 0.59191234571E+01 0.10133242834E+02 0.12271305822E+02
 0.14317084101E+02 0.15925585695E+02 0.16810051364E+02 0.16810000481E+02 0.15925517065E+02
 0.14317095535E+02 0.12271337525E+02 0.10133225000E+02 0.82113738774E+01 0.66774135934E+01
 0.54979847427E+01 0.45554432107E+01 0.38534858330E+01 0.33709421373E+01 0.30628808369E+01
 0.28845020083E+01 0.28035018394E+01 0.28035398643E+01 0.28845377493E+01 0.30628371814E+01
 0.33709008448E+01 0.38535224145E+01 0.45554719545E+01 0.54979152018E+01 0.66773303700E+01
 0.82113727926E+01 0.15977929255E+02 0.19368224092E+02 0.22260660005E+02 0.24202601924E+02
 0.24886187926E+02 0.24202627309E+02 0.22260664556E+02 0.19368170197E+02 0.15977834808E+02
 0.12597879511E+02 0.96715900719E+01 0.74476505857E+01 0.58907310358E+01 0.47410623815E+01
 0.39081837483E+01 0.33582781187E+01 0.30277019999E+01 0.28561154986E+01 0.28035040718E+01
 0.28561209024E+01 0.30277216364E+01 0.33583057125E+01 0.39081913816E+01 0.47410317384E+01
 0.58906759772E+01 0.74476179124E+01 0.96716131814E+01 0.12597959520E+02 0.24959701341E+02
 0.29510324449E+02 0.32961994449E+02 0.34822698924E+02 0.34822684920E+02 0.32961981173E+02
 0.29510330499E+02 0.24959679428E+02 0.19944428542E+02 0.15134882426E+02 0.11097156096E+02
 0.81364045097E+01 0.61884197846E+01 0.48647794471E+01 0.39388486807E+01 0.33546103491E+01
 0.30276673502E+01 0.28844960035E+01 0.28845271437E+01 0.30277163566E+01 0.33546181787E+01
 0.39388335526E+01 0.48647782552E+01 0.61884195652E+01 0.81363962871E+01 0.11097182397E+02
 0.15134967554E+02 0.19944510502E+02 0.36884179192E+02 0.42263159997E+02 0.45825933979E+02
 0.47074119158E+02 0.45825935053E+02 0.42263184542E+02 0.36884235160E+02 0.30398108764E+02
 0.23616230452E+02 0.17344813922E+02 0.12238313414E+02 0.86186746547E+01 0.63515988212E+01
 0.49081118058E+01 0.39388398256E+01 0.33583493572E+01 0.30628393971E+01 0.29737444827E+01
 0.30628561286E+01 0.33583731152E+01 0.39388453737E+01 0.49080836714E+01 0.63515679097E+01
 0.86186951757E+01 0.12238391290E+02 0.17344890612E+02 0.23616241439E+02 0.30398059432E+02
 0.51151732906E+02 0.56947291395E+02 0.60088048941E+02 0.60088258891E+02 0.56947537772E+02
 0.51151626071E+02 0.43508503240E+02 0.34954592732E+02 0.26439124680E+02 0.18849511118E+02
 0.12873124650E+02 0.87924078865E+01 0.63516912600E+01 0.48646677183E+01 0.39081036936E+01
 0.33710291270E+01 0.31373301288E+01 0.31371240545E+01 0.33708214378E+01 0.39083071378E+01
 0.48648686151E+01 0.63514693462E+01 0.87921755194E+01 0.12873322489E+02 0.18849749332E+02
 0.26438951785E+02 0.34954354341E+02 0.43508606765E+02 0.67085213276E+02 0.72814811092E+02
 0.74848409105E+02 0.72814835953E+02 0.67085255200E+02 0.58604438460E+02 0.48533855800E+02
 0.37987751468E+02 0.27972432792E+02 0.19382994328E+02 0.12873006824E+02 0.86186322887E+01
 0.61886467184E+01 0.47410433596E+01 0.38532798839E+01 0.33980995716E+01 0.32610222401E+01
 0.33980969742E+01 0.38532714731E+01 0.47410319230E+01 0.61886396248E+01 0.86186272192E+01
 0.12872991584E+02 0.19382962253E+02 0.27972389877E+02 0.37987708036E+02 0.48533811228E+02
 0.58604391654E+02 0.83849222767E+02 0.88788274267E+02 0.88787814400E+02 0.83848756300E+02
 0.74958922234E+02 0.63611318891E+02 0.51253238271E+02 0.39052137589E+02 0.27972441590E+02
 0.18849861432E+02 0.12238110158E+02 0.81361702004E+01 0.58909325390E+01 0.45557052174E+01
 0.37873867278E+01 0.34503264015E+01 0.34508091270E+01 0.37878713559E+01 0.45552181263E+01
 0.58904281035E+01 0.81366379162E+01 0.12238620469E+02 0.18849415750E+02 0.27971927224E+02
 0.39052525732E+02 0.51253665899E+02 0.63610867219E+02 0.74958479206E+02 0.99986750813E+02
 0.10305694346E+03 0.99986717600E+02 0.91487749872E+02 0.79304649618E+02 0.65381982114E+02
 0.51253421654E+02 0.37987285898E+02 0.26439046384E+02 0.17345356948E+02 0.11097162961E+02
 0.74471803607E+01 0.54979397524E+01 0.43360128489E+01 0.37283689306E+01 0.35435675139E+01
 0.37283556378E+01 0.43359935216E+01 0.54979325820E+01 0.74471979595E+01 0.11097193208E+02
 0.17345375390E+02 0.26439048781E+02 0.37987288637E+02 0.51253435710E+02 0.65382006881E+02
 0.79304683374E+02 0.91487792269E+02 0.11315907088E+03 0.11315971905E+03 0.10631161321E+03
 0.94236064950E+02 0.79304319972E+02 0.63611411619E+02 0.48534326213E+02 0.34954073544E+02
 0.23615920965E+02 0.15135332027E+02 0.96719409843E+01 0.66769393327E+01 0.50533687726E+01
 0.41135242492E+01 0.36960016577E+01 0.36952662515E+01 0.41127664206E+01 0.50540679174E+01
 0.66776970981E+01 0.96712805869E+01 0.15134609317E+02 0.23616588763E+02 0.34954800476E+02
 0.48533693783E+02 0.63610752204E+02 0.79305032266E+02 0.94236814120E+02 0.10631100795E+03
 0.12067209064E+03 0.11683649638E+03 0.10631189037E+03 0.91488210330E+02 0.74958175988E+02
 0.58604392101E+02 0.43509040840E+02 0.30397990137E+02 0.19943964689E+02 0.12597960151E+02
 0.82118868309E+01 0.59190936878E+01 0.46094677182E+01 0.39180047777E+01 0.37073756957E+01
 0.39180047777E+01 0.46094677182E+01 0.59190936878E+01 0.82118868309E+01 0.12597960151E+02
 0.19943964689E+02 0.30397990137E+02 0.43509040840E+02 0.58604392101E+02 0.74958175988E+02
 0.91488210330E+02 0.10631189037E+03 0.11683649638E+03 0.10964937846E+03 0.99986478546E+02
 0.86288838303E+02 0.70872665115E+02 0.55470126458E+02 0.41157137015E+02 0.28714648932E+02
 0.18841380224E+02 0.11962956090E+02 0.78921836281E+01 0.57512093552E+01 0.45040884169E+01
 0.38472707609E+01 0.36469210712E+01 0.38472937435E+01 0.45041111686E+01 0.57512059516E+01
 0.78921487079E+01 0.11962911237E+02 0.18841356543E+02 0.28714657007E+02 0.41157151756E+02
 0.55470097345E+02 0.70872554771E+02 0.86288653416E+02 0.99986279265E+02 0.10964924896E+03
 0.11315990325E+03 0.99987278673E+02 0.88788032622E+02 0.74848534679E+02 0.60088497378E+02
 0.45826165835E+02 0.32961609423E+02 0.22260398578E+02 0.14317504423E+02 0.92475266447E+01
 0.64750238901E+01 0.49362542063E+01 0.40443717426E+01 0.36493830024E+01 0.36487405490E+01
 0.40437308343E+01 0.49369048501E+01 0.64756750203E+01 0.92468586986E+01 0.14316788932E+02
 0.22260989307E+02 0.32962303016E+02 0.45825624315E+02 0.60087833179E+02 0.74848953557E+02
 0.88788366190E+02 0.99986409503E+02 0.10631095131E+03 0.10631166984E+03 0.86289215212E+02
 0.74848849506E+02 0.61712664347E+02 0.48336776957E+02 0.35774381269E+02 0.24879490301E+02