   1   1   0   0
  0.1609860E+02  0.2834225E-09  0.2834225E-09  0.2834225E-09  0.5000000E-15
  1.000000000000000E-004
  CAR 
 unknown system                          
     31.74922608     -0.81888567  301      9.20985868      1.00000000
     -0.819  0.0000E+00  0.0000E+00
     -0.710  0.0000E+00  0.0000E+00
     -0.602  0.0000E+00  0.0000E+00
     -0.493 -0.2071E-32 -0.2249E-33
     -0.385 -0.1277E-28 -0.1386E-29
     -0.276 -0.4345E-25 -0.4718E-26
     -0.168 -0.8155E-22 -0.8857E-23
     -0.059 -0.8434E-19 -0.9165E-20
      0.050 -0.4654E-16 -0.5061E-17
      0.158 -0.1444E-13 -0.1573E-14
      0.267 -0.2449E-11 -0.2675E-12
      0.375 -0.2258E-09 -0.2478E-10
      0.484 -0.1120E-07 -0.1241E-08
      0.592 -0.2946E-06 -0.3323E-07
      0.701 -0.3972E-05 -0.4645E-06
      0.810 -0.2527E-04 -0.3207E-05
      0.918 -0.5365E-04 -0.9032E-05
      1.027  0.1133E-03  0.3263E-05
      1.135  0.6339E-03  0.7208E-04
      1.244  0.8938E-03  0.1691E-03
      1.352  0.9088E-03  0.2678E-03
      1.461  0.2006E-02  0.4855E-03
      1.569  0.2970E-02  0.8079E-03
      1.678  0.2405E-02  0.1069E-02
      1.787  0.2475E-02  0.1338E-02
      1.895  0.2898E-02  0.1652E-02
      2.004  0.2810E-02  0.1957E-02
      2.112  0.3391E-02  0.2325E-02
      2.221  0.3674E-02  0.2724E-02
      2.329  0.5187E-02  0.3287E-02
      2.438  0.1000E-01  0.4373E-02
      2.546  0.1940E-01  0.6480E-02
      2.655  0.3650E-01  0.1044E-01
      2.764  0.5750E-01  0.1668E-01
      2.872  0.7905E-01  0.2527E-01
      2.981  0.1003E+00  0.3616E-01
      3.089  0.1086E+00  0.4795E-01
      3.198  0.1012E+00  0.5893E-01
      3.306  0.8893E-01  0.6859E-01
      3.415  0.7589E-01  0.7683E-01
      3.524  0.6524E-01  0.8391E-01
      3.632  0.6534E-01  0.9100E-01
      3.741  0.7423E-01  0.9906E-01
      3.849  0.7881E-01  0.1076E+00
      3.958  0.7551E-01  0.1158E+00
      4.066  0.7355E-01  0.1238E+00
      4.175  0.7969E-01  0.1324E+00
      4.283  0.9224E-01  0.1425E+00
      4.392  0.1098E+00  0.1544E+00
      4.501  0.1235E+00  0.1678E+00
      4.609  0.1205E+00  0.1809E+00
      4.718  0.9869E-01  0.1916E+00
      4.826  0.7977E-01  0.2003E+00
      4.935  0.8085E-01  0.2090E+00
      5.043  0.8317E-01  0.2181E+00
      5.152  0.7989E-01  0.2267E+00
      5.260  0.8624E-01  0.2361E+00
      5.369  0.9760E-01  0.2467E+00
      5.478  0.9638E-01  0.2572E+00
      5.586  0.8648E-01  0.2665E+00
      5.695  0.8015E-01  0.2752E+00
      5.803  0.7179E-01  0.2830E+00
      5.912  0.7328E-01  0.2910E+00
      6.020  0.9214E-01  0.3010E+00
      6.129  0.1124E+00  0.3132E+00
      6.238  0.1205E+00  0.3263E+00
      6.346  0.9758E-01  0.3369E+00
      6.455  0.5295E-01  0.3426E+00
      6.563  0.2117E-01  0.3449E+00
      6.672  0.1354E-01  0.3464E+00
      6.780  0.1513E-01  0.3480E+00
      6.889  0.1154E-01  0.3493E+00
      6.997  0.5078E-02  0.3498E+00
      7.106  0.2467E-02  0.3501E+00
      7.215  0.2141E-02  0.3503E+00
      7.323  0.1163E-02  0.3505E+00
      7.432  0.3402E-02  0.3508E+00
      7.540  0.9418E-02  0.3518E+00
      7.649  0.1279E-01  0.3532E+00
      7.757  0.1305E-01  0.3547E+00
      7.866  0.1208E-01  0.3560E+00
      7.975  0.7472E-02  0.3568E+00
      8.083  0.3895E-02  0.3572E+00
      8.192  0.6835E-02  0.3579E+00
      8.300  0.8895E-02  0.3589E+00
      8.409  0.4257E-02  0.3594E+00
      8.517 -0.2928E-03  0.3593E+00
      8.626  0.6496E-03  0.3594E+00
      8.734  0.7972E-02  0.3603E+00
      8.843  0.1776E-01  0.3622E+00
      8.952  0.1923E-01  0.3643E+00
      9.060  0.1142E-01  0.3655E+00
      9.169  0.7333E-02  0.3663E+00
      9.277  0.8591E-02  0.3673E+00
      9.386  0.7322E-02  0.3681E+00
      9.494  0.6066E-02  0.3687E+00
      9.603  0.5139E-02  0.3693E+00
      9.711  0.2258E-02  0.3695E+00
      9.820  0.2861E-02  0.3698E+00
      9.929  0.9209E-02  0.3708E+00
     10.037  0.1463E-01  0.3724E+00
     10.146  0.1190E-01  0.3737E+00
     10.254  0.6115E-02  0.3744E+00
     10.363  0.7941E-02  0.3752E+00
     10.471  0.1559E-01  0.3769E+00
     10.580  0.1718E-01  0.3788E+00
     10.689  0.9726E-02  0.3798E+00
     10.797  0.3541E-02  0.3802E+00
     10.906  0.2944E-02  0.3805E+00
     11.014  0.5248E-02  0.3811E+00
     11.123  0.5621E-02  0.3817E+00
     11.231  0.2061E-02  0.3819E+00
     11.340  0.1113E-02  0.3821E+00
     11.448  0.8179E-02  0.3830E+00
     11.557  0.1900E-01  0.3850E+00
     11.666  0.2051E-01  0.3872E+00
     11.774  0.9801E-02  0.3883E+00
     11.883  0.1469E-02  0.3885E+00
     11.991  0.1403E-02  0.3886E+00
     12.100  0.4038E-02  0.3891E+00
     12.208  0.7831E-02  0.3899E+00
     12.317  0.1083E-01  0.3911E+00
     12.425  0.9912E-02  0.3922E+00
     12.534  0.5823E-02  0.3928E+00
     12.643  0.2114E-02  0.3930E+00
     12.751  0.3209E-02  0.3934E+00
     12.860  0.5887E-02  0.3940E+00
     12.968  0.4701E-02  0.3945E+00
     13.077  0.2584E-02  0.3948E+00
     13.185  0.2592E-02  0.3951E+00
     13.294  0.7355E-02  0.3959E+00
     13.403  0.1758E-01  0.3978E+00
     13.511  0.2123E-01  0.4001E+00
     13.620  0.1266E-01  0.4015E+00
     13.728  0.6348E-02  0.4022E+00
     13.837  0.7538E-02  0.4030E+00
     13.945  0.7130E-02  0.4038E+00
     14.054  0.7815E-02  0.4046E+00
     14.162  0.1349E-01  0.4061E+00
     14.271  0.1584E-01  0.4078E+00
     14.380  0.1110E-01  0.4090E+00
     14.488  0.6126E-02  0.4097E+00
     14.597  0.6951E-02  0.4104E+00
     14.705  0.1226E-01  0.4117E+00
     14.814  0.1629E-01  0.4135E+00
     14.922  0.1445E-01  0.4151E+00
     15.031  0.7011E-02  0.4158E+00
     15.139  0.5535E-03  0.4159E+00
     15.248  0.4998E-03  0.4160E+00
     15.357  0.6108E-02  0.4166E+00
     15.465  0.1362E-01  0.4181E+00
     15.574  0.1830E-01  0.4201E+00
     15.682  0.1460E-01  0.4217E+00
     15.791  0.7414E-02  0.4225E+00
     15.899  0.6948E-02  0.4232E+00
     16.008  0.9512E-02  0.4243E+00
     16.117  0.9608E-02  0.4253E+00
     16.225  0.8590E-02  0.4262E+00
     16.334  0.6716E-02  0.4270E+00
     16.442  0.3593E-02  0.4274E+00
     16.551  0.2192E-02  0.4276E+00
     16.659  0.7356E-02  0.4284E+00
     16.768  0.1812E-01  0.4304E+00
     16.876  0.2399E-01  0.4330E+00
     16.985  0.1708E-01  0.4348E+00
     17.094  0.7551E-02  0.4356E+00
     17.202  0.1139E-01  0.4369E+00
     17.311  0.2654E-01  0.4398E+00
     17.419  0.3077E-01  0.4431E+00
     17.528  0.1603E-01  0.4448E+00
     17.636  0.5050E-02  0.4454E+00
     17.745  0.8140E-02  0.4463E+00
     17.853  0.1349E-01  0.4477E+00
     17.962  0.1122E-01  0.4489E+00
     18.071  0.5414E-02  0.4495E+00
     18.179  0.6726E-02  0.4503E+00
     18.288  0.1260E-01  0.4516E+00
     18.396  0.1584E-01  0.4534E+00
     18.505  0.2084E-01  0.4556E+00
     18.613  0.2521E-01  0.4584E+00
     18.722  0.1838E-01  0.4603E+00
     18.831  0.7123E-02  0.4611E+00
     18.939  0.3305E-02  0.4615E+00
     19.048  0.6741E-02  0.4622E+00
     19.156  0.1766E-01  0.4641E+00
     19.265  0.3182E-01  0.4676E+00
     19.373  0.3064E-01  0.4709E+00
     19.482  0.1439E-01  0.4725E+00
     19.590  0.7851E-02  0.4733E+00
     19.699  0.1308E-01  0.4747E+00
     19.808  0.1342E-01  0.4762E+00
     19.916  0.8872E-02  0.4772E+00
     20.025  0.1056E-01  0.4783E+00
     20.133  0.2286E-01  0.4808E+00
     20.242  0.3202E-01  0.4843E+00
     20.350  0.2537E-01  0.4870E+00
     20.459  0.1575E-01  0.4887E+00
     20.568  0.1286E-01  0.4901E+00
     20.676  0.1387E-01  0.4916E+00
     20.785  0.1729E-01  0.4935E+00
     20.893  0.1897E-01  0.4956E+00
     21.002  0.1534E-01  0.4972E+00
     21.110  0.1052E-01  0.4984E+00
     21.219  0.9718E-02  0.4994E+00
     21.327  0.9000E-02  0.5004E+00
     21.436  0.9367E-02  0.5014E+00
     21.545  0.1816E-01  0.5034E+00
     21.653  0.3000E-01  0.5067E+00
     21.762  0.3070E-01  0.5100E+00
     21.870  0.1967E-01  0.5121E+00
     21.979  0.1354E-01  0.5136E+00
     22.087  0.1951E-01  0.5157E+00
     22.196  0.2506E-01  0.5184E+00
     22.304  0.1954E-01  0.5206E+00
     22.413  0.1012E-01  0.5216E+00
     22.522  0.8373E-02  0.5226E+00
     22.630  0.1346E-01  0.5240E+00
     22.739  0.2052E-01  0.5262E+00
     22.847  0.2512E-01  0.5290E+00
     22.956  0.2175E-01  0.5313E+00
     23.064  0.1374E-01  0.5328E+00
     23.173  0.9190E-02  0.5338E+00
     23.282  0.7158E-02  0.5346E+00
     23.390  0.5015E-02  0.5351E+00
     23.499  0.9926E-02  0.5362E+00
     23.607  0.2140E-01  0.5385E+00
     23.716  0.2707E-01  0.5415E+00
     23.824  0.2156E-01  0.5438E+00
     23.933  0.1305E-01  0.5452E+00
     24.041  0.9173E-02  0.5462E+00
     24.150  0.1089E-01  0.5474E+00
     24.259  0.1759E-01  0.5493E+00
     24.367  0.2054E-01  0.5516E+00
     24.476  0.1911E-01  0.5536E+00
     24.584  0.2071E-01  0.5559E+00
     24.693  0.2267E-01  0.5583E+00
     24.801  0.2238E-01  0.5608E+00
     24.910  0.1922E-01  0.5629E+00
     25.018  0.1262E-01  0.5642E+00
     25.127  0.7545E-02  0.5650E+00
     25.236  0.8699E-02  0.5660E+00
     25.344  0.1528E-01  0.5677E+00
     25.453  0.2300E-01  0.5701E+00
     25.561  0.2141E-01  0.5725E+00
     25.670  0.1223E-01  0.5738E+00
     25.778  0.9442E-02  0.5748E+00
     25.887  0.1088E-01  0.5760E+00
     25.996  0.1190E-01  0.5773E+00
     26.104  0.1526E-01  0.5790E+00
     26.213  0.1705E-01  0.5808E+00
     26.321  0.1361E-01  0.5823E+00
     26.430  0.6643E-02  0.5830E+00
     26.538  0.9467E-03  0.5831E+00
     26.647  0.3867E-03  0.5832E+00
     26.755  0.4556E-02  0.5836E+00
     26.864  0.1155E-01  0.5849E+00
     26.973  0.1624E-01  0.5867E+00
     27.081  0.1541E-01  0.5883E+00
     27.190  0.1510E-01  0.5900E+00
     27.298  0.1627E-01  0.5917E+00
     27.407  0.1151E-01  0.5930E+00
     27.515  0.3296E-02  0.5933E+00
     27.624 -0.5445E-03  0.5933E+00
     27.732 -0.6589E-03  0.5932E+00
     27.841 -0.9054E-04  0.5932E+00
     27.950  0.1500E-02  0.5934E+00
     28.058  0.6204E-02  0.5940E+00
     28.167  0.1164E-01  0.5953E+00
     28.275  0.1043E-01  0.5964E+00
     28.384  0.3762E-02  0.5968E+00
     28.492  0.9168E-03  0.5969E+00
     28.601  0.5231E-02  0.5975E+00
     28.710  0.9323E-02  0.5985E+00
     28.818  0.6055E-02  0.5992E+00
     28.927  0.9741E-03  0.5993E+00
     29.035 -0.1598E-03  0.5993E+00
     29.144  0.6870E-03  0.5993E+00
     29.252  0.1093E-02  0.5995E+00
     29.361  0.1107E-02  0.5996E+00
     29.469  0.9495E-03  0.5997E+00
     29.578  0.5227E-03  0.5997E+00
     29.687  0.6177E-03  0.5998E+00
     29.795  0.1004E-02  0.5999E+00
     29.904  0.6897E-03  0.6000E+00
     30.012  0.1222E-03  0.6000E+00
     30.121 -0.5299E-04  0.6000E+00
     30.229 -0.2524E-04  0.6000E+00
     30.338 -0.3972E-05  0.6000E+00
     30.447 -0.2946E-06  0.6000E+00
     30.555 -0.1120E-07  0.6000E+00
     30.664 -0.2258E-09  0.6000E+00
     30.772 -0.2449E-11  0.6000E+00
     30.881 -0.1444E-13  0.6000E+00
     30.989 -0.4634E-16  0.6000E+00
     31.098  0.0000E+00  0.6000E+00
     31.206  0.0000E+00  0.6000E+00
     31.315  0.0000E+00  0.6000E+00
     31.424  0.0000E+00  0.6000E+00
     31.532  0.0000E+00  0.6000E+00
     31.641  0.0000E+00  0.6000E+00
     31.749  0.0000E+00  0.6000E+00
