    1    1   30    1
  0.1609860E+02  0.2834225E-09  0.2834225E-09  0.2834225E-09  0.5000000E-15
  1.000000000000000E-004
  CAR 
 unknown system                          
     11     60      9
 
  0.6250000E-01  0.6250000E-01  0.6250000E-01  0.3906250E-02
    1        1.181114
    2        4.197766
    3        4.266823
    4        4.266823
    5        5.361790
    6        5.361790
    7       25.445788
    8       28.289179
    9       29.388803
 
  0.1875000E+00  0.6250000E-01  0.6250000E-01  0.1171875E-01
    1        1.815591
    2        4.047146
    3        4.425490
    4        4.453580
    5        5.213973
    6        5.457443
    7       24.757602
    8       26.093092
    9       28.645989
 
  0.3125000E+00  0.6250000E-01  0.6250000E-01  0.1171875E-01
    1        2.666957
    2        4.341504
    3        4.485614
    4        4.595397
    5        5.402696
    6        5.934673
    7       20.106021
    8       25.519089
    9       28.131582
 
  0.4375000E+00  0.6250000E-01  0.6250000E-01  0.1171875E-01
    1        2.628495
    2        4.235036
    3        4.315907
    4        5.772852
    5        5.960763
    6        7.533968
    7       15.443984
    8       24.790953
    9       26.987972
 
 -0.4375000E+00  0.6250000E-01  0.6250000E-01  0.1171875E-01
    1        2.558606
    2        4.155957
    3        4.270728
    4        5.948608
    5        6.259360
    6        8.982132
    7       13.329125
    8       24.597686
    9       27.108068
 
 -0.3125000E+00  0.6250000E-01  0.6250000E-01  0.1171875E-01
    1        2.671995
    2        4.273682
    3        4.395442
    4        5.309356
    5        6.048389
    6        6.685464
    7       16.904882
    8       25.201563
    9       27.333350
 
 -0.1875000E+00  0.6250000E-01  0.6250000E-01  0.1171875E-01
    1        2.480033
    2        4.123491
    3        4.496759
    4        4.523246
    5        5.389357
    6        5.607124
    7       21.743076
    8       26.107899
    9       28.081364
 
 -0.6250000E-01  0.6250000E-01  0.6250000E-01  0.1171875E-01
    1        1.511558
    2        4.076098
    3        4.382691
    4        4.385518
    5        5.234339
    6        5.430457
    7       25.474707
    8       27.082553
    9       28.665124
 
  0.1875000E+00  0.1875000E+00  0.6250000E-01  0.1171875E-01
    1        2.115004
    2        3.836653
    3        4.597359
    4        4.615975
    5        5.088363
    6        5.559174
    7       25.089070
    8       26.304035
    9       27.227147
 
  0.3125000E+00  0.1875000E+00  0.6250000E-01  0.2343750E-01
    1        2.951996
    2        3.653220
    3        4.465650
    4        4.898449
    5        5.430631
    6        6.043836
    7       22.195291
    8       24.213441
    9       26.928231
 
  0.4375000E+00  0.1875000E+00  0.6250000E-01  0.2343750E-01
    1        3.015481
    2        4.063379
    3        4.420686
    4        4.814176
    5        6.052521
    6        7.855748
    7       17.320578
    8       23.710502
    9       24.930916
 
 -0.4375000E+00  0.1875000E+00  0.6250000E-01  0.2343750E-01
    1        2.932690
    2        3.907935
    3        4.623912
    4        5.059960
    5        6.215183
    6       10.507998
    7       13.494439
    8       23.216752
    9       24.253163
 
 -0.3125000E+00  0.1875000E+00  0.6250000E-01  0.2343750E-01
    1        3.043733
    2        4.005345
    3        4.608397
    4        4.881430
    5        5.895381
    6        8.848347
    7       15.876514
    8       22.531685
    9       25.420855
 
 -0.1875000E+00  0.1875000E+00  0.6250000E-01  0.2343750E-01
    1        3.189817
    2        3.856326
    3        4.337087
    4        4.869505
    5        5.261286
    6        6.727838
    7       20.579873
    8       22.738964
    9       27.291550
 
 -0.6250000E-01  0.1875000E+00  0.6250000E-01  0.2343750E-01
    1        2.361988
    2        3.886298
    3        4.533680
    4        4.612030
    5        5.155254
    6        5.664945
    7       23.516182
    8       25.277701
    9       28.188282
 
  0.3125000E+00  0.3125000E+00  0.6250000E-01  0.1171875E-01
    1        3.018368
    2        3.229362
    3        5.101538
    4        5.325485
    5        5.923805
    6        6.111579
    7       22.570526
    8       23.685365
    9       24.299836
 
  0.4375000E+00  0.3125000E+00  0.6250000E-01  0.2343750E-01
    1        2.986086
    2        3.150669
    3        5.002939
    4        5.645483
    5        6.101853
    6        8.231952
    7       19.716969
    8       21.652861
    9       21.792646
 
 -0.4375000E+00  0.3125000E+00  0.6250000E-01  0.2343750E-01
    1        3.025845
    2        3.495910
    3        4.701763
    4        5.369692
    5        6.272911
    6       11.451839
    7       15.366522
    8       19.632737
    9       22.055573
 
 -0.3125000E+00  0.3125000E+00  0.6250000E-01  0.2343750E-01
    1        3.351797
    2        3.854048
    3        4.271615
    4        5.178495
    5        5.920356
    6       11.625093
    7       15.569913
    8       18.268800
    9       23.604933
 
 -0.1875000E+00  0.3125000E+00  0.6250000E-01  0.2343750E-01
    1        3.490315
    2        3.902900
    3        4.193206
    4        5.026493
    5        5.547818
    6        8.810983
    7       17.901566
    8       20.180216
    9       25.472207
 
 -0.6250000E-01  0.3125000E+00  0.6250000E-01  0.2343750E-01
    1        2.864461
    2        4.281053
    3        4.501280
    4        4.646055
    5        5.703435
    6        6.636124
    7       18.630795
    8       24.674504
    9       26.873074
 
  0.4375000E+00  0.4375000E+00  0.6250000E-01  0.1171875E-01
    1        2.622368
    2        2.746684
    3        6.013929
    4        6.051631
    5        6.305077
    6        9.228524
    7       18.845084
    8       20.241295
    9       21.043089
 
 -0.4375000E+00  0.4375000E+00  0.6250000E-01  0.2343750E-01
    1        2.648714
    2        2.819247
    3        5.717226
    4        5.999039
    5        6.429433
    6       11.585801
    7       16.845879
    8       18.409064
    9       20.214177
 
 -0.3125000E+00  0.4375000E+00  0.6250000E-01  0.2343750E-01
    1        2.962207
    2        3.386070
    3        4.857441
    4        5.555048
    5        6.242493
    6       13.378465
    7       14.903271
    8       17.313879
    9       21.671763
 
 -0.1875000E+00  0.4375000E+00  0.6250000E-01  0.2343750E-01
    1        3.196273
    2        3.772922
    3        4.652296
    4        4.913110
    5        6.099562
    6       11.575563
    7       13.789264
    8       20.754567
    9       23.793245
 
 -0.6250000E-01  0.4375000E+00  0.6250000E-01  0.2343750E-01
    1        2.723752
    2        4.091645
    3        4.409779
    4        5.462489
    5        6.169982
    6        8.915694
    7       14.270863
    8       24.322799
    9       25.804615
 
 -0.4375000E+00 -0.4375000E+00  0.6250000E-01  0.1171875E-01
    1        2.483224
    2        2.638007
    3        6.156628
    4        6.293481
    5        6.443375
    6       10.773405
    7       16.806796
    8       19.669312
    9       20.441928
 
 -0.3125000E+00 -0.4375000E+00  0.6250000E-01  0.2343750E-01
    1        2.781383
    2        2.928949
    3        5.418390
    4        5.930721
    5        6.290502
    6        9.972882
    7       18.618348
    8       19.240518
    9       20.734068
 
 -0.1875000E+00 -0.4375000E+00  0.6250000E-01  0.2343750E-01
    1        3.068340
    2        3.738104
    3        4.512689
    4        5.089717
    5        6.232372
    6        9.510459
    7       16.206793
    8       22.309751
    9       22.790518
 
 -0.3125000E+00 -0.3125000E+00  0.6250000E-01  0.1171875E-01
    1        2.849257
    2        2.953778
    3        5.626680
    4        5.713499
    5        6.118799
    6        7.491605
    7       21.229588
    8       21.600985
    9       22.166044
 
 -0.1875000E+00 -0.3125000E+00  0.6250000E-01  0.2343750E-01
    1        3.151245
    2        3.417927
    3        4.589850
    4        5.260241
    5        5.832458
    6        6.846996
    7       20.903995
    8       22.925365
    9       24.519421
 
 -0.1875000E+00 -0.1875000E+00  0.6250000E-01  0.1171875E-01
    1        2.776330
    2        3.536713
    3        4.736455
    4        4.939860
    5        5.320200
    6        5.730659
    7       23.942366
    8       25.446050
    9       26.026735
 
  0.1875000E+00  0.1875000E+00  0.1875000E+00  0.3906250E-02
    1        2.063271
    2        4.130388
    3        4.444880
    4        4.444880
    5        5.364579
    6        5.364579
    7       23.253769
    8       26.341635
    9       29.749226
 
  0.3125000E+00  0.1875000E+00  0.1875000E+00  0.1171875E-01
    1        2.778038
    2        3.906074
    3        4.514387
    4        4.679475
    5        5.076210
    6        6.067854
    7       21.984633
    8       24.005590
    9       28.667482
 
  0.4375000E+00  0.1875000E+00  0.1875000E+00  0.1171875E-01
    1        3.366178
    2        3.956374
    3        4.396233
    4        4.815457
    5        5.264407
    6        7.623572
    7       19.149783
    8       21.372572
    9       27.224655
 
 -0.4375000E+00  0.1875000E+00  0.1875000E+00  0.1171875E-01
    1        3.099261
    2        3.918857
    3        4.700824
    4        4.886195
    5        5.933416
    6       10.098689
    7       14.677674
    8       21.512380
    9       26.161408
 
 -0.3125000E+00  0.1875000E+00  0.1875000E+00  0.1171875E-01
    1        2.970003
    2        3.885484
    3        4.766878
    4        4.784465
    5        6.292412
    6       10.008562
    7       14.561946
    8       22.651615
    9       24.735859
 
 -0.1875000E+00  0.1875000E+00  0.1875000E+00  0.1171875E-01
    1        3.037164
    2        3.777530
    3        4.477612
    4        4.932601
    5        6.121321
    6        7.135642
    7       19.008579
    8       24.473061
    9       24.499550
 
  0.3125000E+00  0.3125000E+00  0.1875000E+00  0.1171875E-01
    1        2.881567
    2        4.029927
    3        4.387690
    4        4.685904
    5        5.877899
    6        5.982628
    7       20.322293
    8       25.719331
    9       26.213372
 
  0.4375000E+00  0.3125000E+00  0.1875000E+00  0.2343750E-01
    1        3.344869
    2        3.783143
    3        4.145247
    4        5.187997
    5        5.640974
    6        7.757397
    7       19.310927
    8       21.525183
    9       24.870499
 
 -0.4375000E+00  0.3125000E+00  0.1875000E+00  0.2343750E-01
    1        3.575864
    2        3.680000
    3        4.065350
    4        5.281589
    5        5.897665
    6       10.354365
    7       16.840052
    8       19.228677
    9       22.793296
 
 -0.3125000E+00  0.3125000E+00  0.1875000E+00  0.2343750E-01
    1        3.331499
    2        3.620048
    3        4.371108
    4        5.195324
    5        6.197147
    6       12.430847
    7       14.088027
    8       20.223124
    9       21.202404
 
 -0.1875000E+00  0.3125000E+00  0.1875000E+00  0.2343750E-01
    1        3.242673
    2        3.489334
    3        4.380471
    4        5.514950
    5        5.968178
    6        9.230140
    7       18.210569
    8       20.452547
    9       22.159730
 
  0.4375000E+00  0.4375000E+00  0.1875000E+00  0.1171875E-01
    1        2.967235
    2        3.435507
    3        4.839084
    4        5.239446
    5        6.288502
    6        8.705656
    7       17.852037
    8       21.937478
    9       23.097085
 
 -0.4375000E+00  0.4375000E+00  0.1875000E+00  0.2343750E-01
    1        3.071342
    2        3.256098
    3        4.711021
    4        5.689040
    5        6.240056
    6       11.038568
    7       17.354644
    8       19.266584
    9       19.890451
 
 -0.3125000E+00  0.4375000E+00  0.1875000E+00  0.2343750E-01
    1        3.225517
    2        3.620398
    3        4.237248
    4        5.416817
    5        6.423386
    6       14.193011
    7       15.564877
    8       17.394076
    9       18.552139
 
 -0.1875000E+00  0.4375000E+00  0.1875000E+00  0.2343750E-01
    1        3.383167
    2        3.628995
    3        4.132986
    4        5.405345
    5        6.217250
    6       12.221245
    7       16.024071
    8       18.528728
    9       20.140055
 
 -0.4375000E+00 -0.4375000E+00  0.1875000E+00  0.1171875E-01
    1        2.735731
    2        3.046877
    3        5.435004
    4        5.799990
    5        6.316828
    6       12.276186
    7       16.381954
    8       17.185172
    9       21.587922
 
 -0.3125000E+00 -0.4375000E+00  0.1875000E+00  0.2343750E-01
    1        2.940172
    2        3.158324
    3        4.962612
    4        5.692625
    5        6.424752
    6       12.815269
    7       16.713129
    8       17.342658
    9       19.351595
 
 -0.3125000E+00 -0.3125000E+00  0.1875000E+00  0.1171875E-01
    1        2.833323
    2        3.174965
    3        5.208139
    4        5.558006
    5        6.348223
    6       10.548305
    7       16.952021
    8       19.274342
    9       22.103627
 
  0.3125000E+00  0.3125000E+00  0.3125000E+00  0.3906250E-02
    1        2.618420
    2        4.381187
    3        4.381187
    4        5.340114
    5        5.750567
    6        5.750567
    7       18.402610
    8       25.587041
    9       29.141572
 
  0.4375000E+00  0.3125000E+00  0.3125000E+00  0.1171875E-01
    1        2.920806
    2        4.183428
    3        4.524825
    4        4.963999
    5        5.628195
    6        7.563721
    7       17.149063
    8       23.539135
    9       26.721921
 
 -0.4375000E+00  0.3125000E+00  0.3125000E+00  0.1171875E-01
    1        3.434821
    2        3.929938
    3        4.339285
    4        4.981634
    5        5.661447
    6       10.075823
    7       16.659322
    8       19.068735
    9       26.293587
 
 -0.3125000E+00  0.3125000E+00  0.3125000E+00  0.1171875E-01
    1        3.096115
    2        3.693756
    3        4.598765
    4        5.338731
    5        6.040121
    6       13.096578
    7       14.409533
    8       17.646682
    9       23.635080
 
  0.4375000E+00  0.4375000E+00  0.3125000E+00  0.1171875E-01
    1        2.806857
    2        4.097018
    3        4.529746
    4        5.010385
    5        6.241012
    6        8.206089
    7       15.615908
    8       24.591162
    9       25.852112
 
 -0.4375000E+00  0.4375000E+00  0.3125000E+00  0.2343750E-01
    1        3.211611
    2        3.768778
    3        4.533906
    4        4.969718
    5        6.110851
    6       10.502766
    7       14.829541
    8       21.717397
    9       22.939400
 
 -0.3125000E+00  0.4375000E+00  0.3125000E+00  0.2343750E-01
    1        3.287545
    2        3.686574
    3        4.253260
    4        5.344453
    5        6.216029
    6       13.475282
    7       14.707440
    8       17.768847
    9       20.911232
 
 -0.4375000E+00 -0.4375000E+00  0.3125000E+00  0.1171875E-01
    1        3.078439
    2        3.734037
    3        4.653373
    4        5.067753
    5        6.201937
    6       11.993357
    7       13.844409
    8       20.061313
    9       23.998689
 
  0.4375000E+00  0.4375000E+00  0.4375000E+00  0.3906250E-02
    1        2.508263
    2        4.227866
    3        4.227866
    4        6.186864
    5        6.186864
    6        7.962306
    7       14.125200
    8       24.754424
    9       27.916527
 
 -0.4375000E+00  0.4375000E+00  0.4375000E+00  0.1171875E-01
    1        2.766585
    2        4.034302
    3        4.436745
    4        5.454632
    5        6.164683
    6        9.851410
    7       13.414876
    8       23.724903
    9       26.023582
