       N       E                     dE             d eps       ncg     rms          rms(c)
DAV:   1     0.272524049957E+02    0.27252E+02   -0.46657E+03  1256   0.793E+02
DAV:   2    -0.271782780595E+01   -0.29970E+02   -0.27944E+02  1122   0.160E+02
DAV:   3    -0.293210111121E+01   -0.21427E+00   -0.21422E+00  1287   0.157E+01
DAV:   4    -0.293250253530E+01   -0.40142E-03   -0.40142E-03  1219   0.616E-01
DAV:   5    -0.293250525948E+01   -0.27242E-05   -0.27249E-05  1132   0.455E-02    0.612E+00
DAV:   6    -0.267458303456E+01    0.25792E+00   -0.11384E+00  1092   0.117E+01    0.386E+00
DAV:   7    -0.266299844940E+01    0.11585E-01   -0.15682E-02  1167   0.135E+00    0.209E+00
DAV:   8    -0.265936508970E+01    0.36334E-02   -0.64224E-04  1102   0.218E-01    0.902E-02
DAV:   9    -0.265937197625E+01   -0.68865E-05   -0.80419E-06   570   0.299E-02
   1 F= -.26593720E+01 E0= -.26593116E+01  d E =-.265937E+01
