 vasp.5.3.5 31Mar14 (build Jan 09 2015 16:57:47) complex                        
  
 executed on             LinuxIFC date 2015.03.24  14:26:01
 serial version


--------------------------------------------------------------------------------------------------------


 INCAR:
 POTCAR:    PAW_PBE Ag 02Apr2005                  
 POTCAR:    PAW_PBE Ag 02Apr2005                  
   VRHFIN =Ag : s1 d10                                                          
   LEXCH  = PE                                                                  
   EATOM  =  1037.2675 eV,   76.2370 Ry                                         
                                                                                
   TITEL  = PAW_PBE Ag 02Apr2005                                                
   LULTRA =        F    use ultrasoft PP ?                                      
   IUNSCR =        1    unscreen: 0-lin 1-nonlin 2-no                           
   RPACOR =    2.000    partial core radius                                     
   POMASS =  107.868; ZVAL   =   11.000    mass and valenz                      
   RCORE  =    2.500    outmost cutoff radius                                   
   RWIGS  =    2.840; RWIGS  =    1.503    wigner-seitz radius (au A)           
   ENMAX  =  249.844; ENMIN  =  187.383 eV                                      
   ICORE  =        3    local potential                                         
   LCOR   =        T    correct aug charges                                     
   LPAW   =        T    paw PP                                                  
   EAUG   =  412.496                                                            
   DEXC   =    0.000                                                            
   RMAX   =    2.560    core radius for proj-oper                               
   RAUG   =    1.300    factor for augmentation sphere                          
   RDEP   =    2.576    radius for radial grids                                 
   RDEPT  =    2.072    core radius for aug-charge                              
                                                                                
   Atomic configuration                                                         
   12 entries                                                                   
     n  l   j            E        occ.                                          
     1  0  0.50    -25324.9161   2.0000                                         
     2  0  0.50     -3728.5341   2.0000                                         
     2  1  1.50     -3344.0404   6.0000                                         
     3  0  0.50      -683.5581   2.0000                                         
     3  1  1.50      -557.3225   6.0000                                         
     3  2  2.50      -358.3853  10.0000                                         
     4  0  0.50       -95.0341   2.0000                                         
     4  1  1.50       -58.5511   6.0000                                         
     4  2  2.50        -7.4440  10.0000                                         
     5  0  0.50        -4.4045   1.0000                                         
     5  1  0.50        -1.3606   0.0000                                         
     4  3  2.50        -1.3606   0.0000                                         
   Description                                                                  
     l       E           TYP  RCUT    TYP  RCUT                                 
     2     -7.4439781     23  2.400                                             
     2     -8.8045607     23  2.400                                             
     0     -4.4044681     23  2.400                                             
     0      1.9520038     23  2.400                                             
     1     -1.3605826     23  2.500                                             
     1     27.2116520     23  2.500                                             
     3     -4.0817478     23  2.400                                             
  local pseudopotential read in
  partial core-charges read in
  partial kinetic energy density read in
  atomic valenz-charges read in
  non local Contribution for L=           2  read in
    real space projection operators read in
  non local Contribution for L=           2  read in
    real space projection operators read in
  non local Contribution for L=           0  read in
    real space projection operators read in
  non local Contribution for L=           0  read in
    real space projection operators read in
  non local Contribution for L=           1  read in
    real space projection operators read in
  non local Contribution for L=           1  read in
    real space projection operators read in
    PAW grid and wavefunctions read in
 
   number of l-projection  operators is LMAX  =           6
   number of lm-projection operators is LMMAX =          18
 
  PAW_PBE Ag 02Apr2005                  :
 energy of atom  1       EATOM=-1037.2675
 kinetic energy error for atom=    0.0272 (will be added to EATOM!!)
 
 
 POSCAR: Ag                                      
  positions in cartesian coordinates
  No initial velocities read in
 exchange correlation table for  LEXCH =        8
   RHO(1)=    0.500       N(1)  =     2000
   RHO(2)=  100.500       N(2)  =     4000

 VTST: version 3.1, (03/28/14)

 CHAIN: initializing optimizer
 
 OPT: Using VASP Conjugate-Gradient optimizer
 CHAIN: Read ICHAIN            0
 
 POSCAR: Ag                                      
  positions in cartesian coordinates
  No initial velocities read in
 


--------------------------------------------------------------------------------------------------------


 ion  position               nearest neighbor table
   1  0.000  0.000  0.000-
 
  LATTYP: Found a face centered cubic cell.
 ALAT       =     4.0082000000
  
  Lattice vectors:
  
 A1 = (   2.8342254004,   0.0000000000,   0.0000000000)
 A2 = (   1.4171127002,   2.4545111968,   0.0000000000)
 A3 = (   1.4171127002,   0.8181703989,   2.3141353490)


Analysis of symmetry for initial positions (statically):
=====================================================================
 Subroutine PRICEL returns:
 Original cell was already a primitive cell.
 

 Routine SETGRP: Setting up the symmetry group for a 
 face centered cubic supercell.


 Subroutine GETGRP returns: Found 48 space group operations
 (whereof 48 operations were pure point group operations)
 out of a pool of 48 trial point group operations.


The static configuration has the point symmetry O_h .


Analysis of symmetry for dynamics (positions and initial velocities):
=====================================================================
 Subroutine PRICEL returns:
 Original cell was already a primitive cell.
 

 Routine SETGRP: Setting up the symmetry group for a 
 face centered cubic supercell.


 Subroutine GETGRP returns: Found 48 space group operations
 (whereof 48 operations were pure point group operations)
 out of a pool of 48 trial point group operations.


The dynamic configuration has the point symmetry O_h .
 
 
 KPOINTS: KPOINTS created by Atomic Simulation Env

Automatic generation of k-mesh.
Space group operators:
 irot       det(A)        alpha          n_x          n_y          n_z        tau_x        tau_y        tau_z
    1     1.000000     0.000001     1.000000     0.000000     0.000000     0.000000     0.000000     0.000000
    2    -1.000000     0.000001     1.000000     0.000000     0.000000     0.000000     0.000000     0.000000
    3     1.000000   120.000000    -0.816497    -0.471405    -0.333333     0.000000     0.000000     0.000000
    4    -1.000000   120.000000    -0.816497    -0.471405    -0.333333     0.000000     0.000000     0.000000
    5     1.000000   120.000000     0.816497     0.471405     0.333333     0.000000     0.000000     0.000000
    6    -1.000000   120.000000     0.816497     0.471405     0.333333     0.000000     0.000000     0.000000
    7     1.000000    90.000000    -0.707107    -0.408248     0.577350     0.000000     0.000000     0.000000
    8    -1.000000    90.000000    -0.707107    -0.408248     0.577350     0.000000     0.000000     0.000000
    9     1.000000   179.999999     1.000000     0.000000     0.000000     0.000000     0.000000     0.000000
   10    -1.000000   179.999999     1.000000     0.000000     0.000000     0.000000     0.000000     0.000000
   11     1.000000    90.000000     0.707107    -0.408248     0.577350     0.000000     0.000000     0.000000
   12    -1.000000    90.000000     0.707107    -0.408248     0.577350     0.000000     0.000000     0.000000
   13     1.000000   179.999999     0.707107     0.408248    -0.577350     0.000000     0.000000     0.000000
   14    -1.000000   179.999999     0.707107     0.408248    -0.577350     0.000000     0.000000     0.000000
   15     1.000000   120.000000     0.816497    -0.471405    -0.333333     0.000000     0.000000     0.000000
   16    -1.000000   120.000000     0.816497    -0.471405    -0.333333     0.000000     0.000000     0.000000
   17     1.000000   120.000000     0.000000    -0.942809     0.333333     0.000000     0.000000     0.000000
   18    -1.000000   120.000000     0.000000    -0.942809     0.333333     0.000000     0.000000     0.000000
   19     1.000000    90.000000     0.707107     0.408248    -0.577350     0.000000     0.000000     0.000000
   20    -1.000000    90.000000     0.707107     0.408248    -0.577350     0.000000     0.000000     0.000000
   21     1.000000    90.000000     0.000000    -0.816497    -0.577350     0.000000     0.000000     0.000000
   22    -1.000000    90.000000     0.000000    -0.816497    -0.577350     0.000000     0.000000     0.000000
   23     1.000000   179.999999     0.500000     0.866025     0.000000     0.000000     0.000000     0.000000
   24    -1.000000   179.999999     0.500000     0.866025     0.000000     0.000000     0.000000     0.000000
   25     1.000000   120.000000     0.000000     0.942809    -0.333333     0.000000     0.000000     0.000000
   26    -1.000000   120.000000     0.000000     0.942809    -0.333333     0.000000     0.000000     0.000000
   27     1.000000   120.000000     0.000000     0.000000    -1.000000     0.000000     0.000000     0.000000
   28    -1.000000   120.000000     0.000000     0.000000    -1.000000     0.000000     0.000000     0.000000
   29     1.000000   180.000000     0.000000    -0.816497    -0.577350     0.000000     0.000000     0.000000
   30    -1.000000   180.000000     0.000000    -0.816497    -0.577350     0.000000     0.000000     0.000000
   31     1.000000    90.000000    -0.707107     0.408248    -0.577350     0.000000     0.000000     0.000000
   32    -1.000000    90.000000    -0.707107     0.408248    -0.577350     0.000000     0.000000     0.000000
   33     1.000000   179.999999     0.500000     0.288675     0.816497     0.000000     0.000000     0.000000
   34    -1.000000   179.999999     0.500000     0.288675     0.816497     0.000000     0.000000     0.000000
   35     1.000000    90.000000     0.000000     0.816497     0.577350     0.000000     0.000000     0.000000
   36    -1.000000    90.000000     0.000000     0.816497     0.577350     0.000000     0.000000     0.000000
   37     1.000000   120.000000    -0.816497     0.471405     0.333333     0.000000     0.000000     0.000000
   38    -1.000000   120.000000    -0.816497     0.471405     0.333333     0.000000     0.000000     0.000000
   39     1.000000   179.999999     0.707107    -0.408248     0.577350     0.000000     0.000000     0.000000
   40    -1.000000   179.999999     0.707107    -0.408248     0.577350     0.000000     0.000000     0.000000
   41     1.000000   120.000000     0.000000     0.000000     1.000000     0.000000     0.000000     0.000000
   42    -1.000000   120.000000     0.000000     0.000000     1.000000     0.000000     0.000000     0.000000
   43     1.000000   180.000000     0.000000    -0.577350     0.816497     0.000000     0.000000     0.000000
   44    -1.000000   180.000000     0.000000    -0.577350     0.816497     0.000000     0.000000     0.000000
   45     1.000000   179.999999    -0.500000     0.866025     0.000000     0.000000     0.000000     0.000000
   46    -1.000000   179.999999    -0.500000     0.866025     0.000000     0.000000     0.000000     0.000000
   47     1.000000   179.999999    -0.500000     0.288675     0.816497     0.000000     0.000000     0.000000
   48    -1.000000   179.999999    -0.500000     0.288675     0.816497     0.000000     0.000000     0.000000
 
 Subroutine IBZKPT returns following result:
 ===========================================
 
 Found     60 irreducible k-points:
 
 Following reciprocal coordinates:
            Coordinates               Weight
  0.062500  0.062500  0.062500     96.000000
  0.187500  0.062500  0.062500    288.000000
  0.312500  0.062500  0.062500    288.000000
  0.437500  0.062500  0.062500    288.000000
 -0.437500  0.062500  0.062500    288.000000
 -0.312500  0.062500  0.062500    288.000000
 -0.187500  0.062500  0.062500    288.000000
 -0.062500  0.062500  0.062500    288.000000
  0.187500  0.187500  0.062500    288.000000
  0.312500  0.187500  0.062500    576.000000
  0.437500  0.187500  0.062500    576.000000
 -0.437500  0.187500  0.062500    576.000000
 -0.312500  0.187500  0.062500    576.000000
 -0.187500  0.187500  0.062500    576.000000
 -0.062500  0.187500  0.062500    576.000000
  0.312500  0.312500  0.062500    288.000000
  0.437500  0.312500  0.062500    576.000000
 -0.437500  0.312500  0.062500    576.000000
 -0.312500  0.312500  0.062500    576.000000
 -0.187500  0.312500  0.062500    576.000000
 -0.062500  0.312500  0.062500    576.000000
  0.437500  0.437500  0.062500    288.000000
 -0.437500  0.437500  0.062500    576.000000
 -0.312500  0.437500  0.062500    576.000000
 -0.187500  0.437500  0.062500    576.000000
 -0.062500  0.437500  0.062500    576.000000
 -0.437500 -0.437500  0.062500    288.000000
 -0.312500 -0.437500  0.062500    576.000000
 -0.187500 -0.437500  0.062500    576.000000
 -0.312500 -0.312500  0.062500    288.000000
 -0.187500 -0.312500  0.062500    576.000000
 -0.187500 -0.187500  0.062500    288.000000
  0.187500  0.187500  0.187500     96.000000
  0.312500  0.187500  0.187500    288.000000
  0.437500  0.187500  0.187500    288.000000
 -0.437500  0.187500  0.187500    288.000000
 -0.312500  0.187500  0.187500    288.000000
 -0.187500  0.187500  0.187500    288.000000
  0.312500  0.312500  0.187500    288.000000
  0.437500  0.312500  0.187500    576.000000
 -0.437500  0.312500  0.187500    576.000000
 -0.312500  0.312500  0.187500    576.000000
 -0.187500  0.312500  0.187500    576.000000
  0.437500  0.437500  0.187500    288.000000
 -0.437500  0.437500  0.187500    576.000000
 -0.312500  0.437500  0.187500    576.000000
 -0.187500  0.437500  0.187500    576.000000
 -0.437500 -0.437500  0.187500    288.000000
 -0.312500 -0.437500  0.187500    576.000000
 -0.312500 -0.312500  0.187500    288.000000
  0.312500  0.312500  0.312500     96.000000
  0.437500  0.312500  0.312500    288.000000
 -0.437500  0.312500  0.312500    288.000000
 -0.312500  0.312500  0.312500    288.000000
  0.437500  0.437500  0.312500    288.000000
 -0.437500  0.437500  0.312500    576.000000
 -0.312500  0.437500  0.312500    576.000000
 -0.437500 -0.437500  0.312500    288.000000
  0.437500  0.437500  0.437500     96.000000
 -0.437500  0.437500  0.437500    288.000000
 
 Following cartesian coordinates:
            Coordinates               Weight
  0.022052  0.012732  0.009003     96.000000
  0.066156 -0.012732 -0.009003    288.000000
  0.110259 -0.038195 -0.027008    288.000000
  0.154363 -0.063658 -0.045013    288.000000
 -0.154363  0.114585  0.081024    288.000000
 -0.110259  0.089122  0.063018    288.000000
 -0.066156  0.063658  0.045013    288.000000
 -0.022052  0.038195  0.027008    288.000000
  0.066156  0.038195 -0.027008    288.000000
  0.110259  0.012732 -0.045013    576.000000
  0.154363 -0.012732 -0.063018    576.000000
 -0.154363  0.165512  0.063018    576.000000
 -0.110259  0.140048  0.045013    576.000000
 -0.066156  0.114585  0.027008    576.000000
 -0.022052  0.089122  0.009003    576.000000
  0.110259  0.063658 -0.063018    288.000000
  0.154363  0.038195 -0.081024    576.000000
 -0.154363  0.216438  0.045013    576.000000
 -0.110259  0.190975  0.027008    576.000000
 -0.066156  0.165512  0.009003    576.000000
 -0.022052  0.140048 -0.009003    576.000000
  0.154363  0.089122 -0.099029    288.000000
 -0.154363  0.267365  0.027008    576.000000
 -0.110259  0.241902  0.009003    576.000000
 -0.066156  0.216438 -0.009003    576.000000
 -0.022052  0.190975 -0.027008    576.000000
 -0.154363 -0.089122  0.153045    288.000000
 -0.110259 -0.114585  0.135040    576.000000
 -0.066156 -0.140048  0.117034    576.000000
 -0.110259 -0.063658  0.117034    288.000000
 -0.066156 -0.089122  0.099029    576.000000
 -0.066156 -0.038195  0.081024    288.000000
  0.066156  0.038195  0.027008     96.000000
  0.110259  0.012732  0.009003    288.000000
  0.154363 -0.012732 -0.009003    288.000000
 -0.154363  0.165512  0.117034    288.000000
 -0.110259  0.140048  0.099029    288.000000
 -0.066156  0.114585  0.081024    288.000000
  0.110259  0.063658 -0.009003    288.000000
  0.154363  0.038195 -0.027008    576.000000
 -0.154363  0.216438  0.099029    576.000000
 -0.110259  0.190975  0.081024    576.000000
 -0.066156  0.165512  0.063018    576.000000
  0.154363  0.089122 -0.045013    288.000000
 -0.154363  0.267365  0.081024    576.000000
 -0.110259  0.241902  0.063018    576.000000
 -0.066156  0.216438  0.045013    576.000000
 -0.154363 -0.089122  0.207061    288.000000
 -0.110259 -0.114585  0.189055    576.000000
 -0.110259 -0.063658  0.171050    288.000000
  0.110259  0.063658  0.045013     96.000000
  0.154363  0.038195  0.027008    288.000000
 -0.154363  0.216438  0.153045    288.000000
 -0.110259  0.190975  0.135040    288.000000
  0.154363  0.089122  0.009003    288.000000
 -0.154363  0.267365  0.135040    576.000000
 -0.110259  0.241902  0.117034    576.000000
 -0.154363 -0.089122  0.261077    288.000000
  0.154363  0.089122  0.063018     96.000000
 -0.154363  0.267365  0.189055    288.000000
 


--------------------------------------------------------------------------------------------------------




 Dimension of arrays:
   k-points           NKPTS =     60   k-points in BZ     NKDIM =     60   number of bands    NBANDS=      9
   number of dos      NEDOS =    301   number of ions     NIONS =      1
   non local maximal  LDIM  =      6   non local SUM 2l+1 LMDIM =     18
   total plane-waves  NPLWV =   2744
   max r-space proj   IRMAX =      1   max aug-charges    IRDMAX=   8579
   dimension x,y,z NGX =    14 NGY =   14 NGZ =   14
   dimension x,y,z NGXF=    28 NGYF=   28 NGZF=   28
   support grid    NGXF=    28 NGYF=   28 NGZF=   28
   ions per type =               1
 NGX,Y,Z   is equivalent  to a cutoff of   8.21,  8.21,  8.21 a.u.
 NGXF,Y,Z  is equivalent  to a cutoff of  16.42, 16.42, 16.42 a.u.


 I would recommend the setting:
   dimension x,y,z NGX =    13 NGY =   13 NGZ =   13
 SYSTEM =  unknown system                          
 POSCAR =  Ag                                      

 Startparameter for this run:
   NWRITE =      2    write-flag & timer
   PREC   = normal    normal or accurate (medium, high low for compatibility)
   ISTART =      0    job   : 0-new  1-cont  2-samecut
   ICHARG =      2    charge: 1-file 2-atom 10-const
   ISPIN  =      1    spin polarized calculation?
   LNONCOLLINEAR =      F non collinear calculations
   LSORBIT =      F    spin-orbit coupling
   INIWAV =      1    electr: 0-lowe 1-rand  2-diag
   LASPH  =      F    aspherical Exc in radial PAW
   METAGGA=      F    non-selfconsistent MetaGGA calc.

 Electronic Relaxation 1
   ENCUT  =  350.0 eV  25.72 Ry    5.07 a.u.   4.32  4.32  4.32*2*pi/ulx,y,z
   ENINI  =  350.0     initial cutoff
   ENAUG  =  412.5 eV  augmentation charge cutoff
   NELM   =     60;   NELMIN=  2; NELMDL= -5     # of ELM steps 
   EDIFF  = 0.1E-03   stopping-criterion for ELM
   LREAL  =      F    real-space projection
   NLSPLINE    = F    spline interpolate recip. space projectors
   LCOMPAT=      F    compatible to vasp.4.4
   GGA_COMPAT  = T    GGA compatible to vasp.4.4-vasp.4.6
   LMAXPAW     = -100 max onsite density
   LMAXMIX     =    2 max onsite mixed and CHGCAR
   VOSKOWN=      0    Vosko Wilk Nusair interpolation
   ROPT   =    0.00000
 Ionic relaxation
   EDIFFG = 0.1E-02   stopping-criterion for IOM
   NSW    =     30    number of steps for IOM
   NBLOCK =      1;   KBLOCK =     30    inner block; outer block 
   IBRION =      2    ionic relax: 0-MD 1-quasi-New 2-CG
   NFREE  =      1    steps in history (QN), initial steepest desc. (CG)
   ISIF   =      2    stress and relaxation
   IWAVPR =     11    prediction:  0-non 1-charg 2-wave 3-comb
   ISYM   =      2    0-nonsym 1-usesym 2-fastsym
   LCORR  =      T    Harris-Foulkes like correction to forces

   POTIM  = 0.5000    time-step for ionic-motion
   TEIN   =    0.0    initial temperature
   TEBEG  =    0.0;   TEEND  =   0.0 temperature during run
   SMASS  =  -3.00    Nose mass-parameter (am)
   estimated Nose-frequenzy (Omega)   =  0.10E-29 period in steps =****** mass=  -0.184E-27a.u.
   SCALEE = 1.0000    scale energy and forces
   NPACO  =    256;   APACO  = 16.0  distance and # of slots for P.C.
   PSTRESS=    0.0 pullay stress

  Mass of Ions in am
   POMASS = 107.87
  Ionic Valenz
   ZVAL   =  11.00
  Atomic Wigner-Seitz radii
   RWIGS  =  -1.00
  virtual crystal weights 
   VCA    =   1.00
   NELECT =      11.0000    total number of electrons
   NUPDOWN=      -1.0000    fix difference up-down

 DOS related values:
   EMIN   =  10.00;   EMAX   =-10.00  energy-range for DOS
   EFERMI =   0.00
   ISMEAR =     1;   SIGMA  =   0.20  broadening in eV -4-tet -1-fermi 0-gaus

 Electronic relaxation 2 (details)
   IALGO  =     38    algorithm
   LDIAG  =      T    sub-space diagonalisation (order eigenvalues)
   LSUBROT=      F    optimize rotation matrix (better conditioning)
   TURBO    =      0    0=normal 1=particle mesh
   IRESTART =      0    0=no restart 2=restart with 2 vectors
   NREBOOT  =      0    no. of reboots
   NMIN     =      0    reboot dimension
   EREF     =   0.00    reference energy to select bands
   IMIX   =      4    mixing-type and parameters
     AMIX     =   0.40;   BMIX     =  1.00
     AMIX_MAG =   1.60;   BMIX_MAG =  1.00
     AMIN     =   0.10
     WC   =   100.;   INIMIX=   1;  MIXPRE=   1;  MAXMIX= -45

 Intra band minimization:
   WEIMIN = 0.0010     energy-eigenvalue tresh-hold
   EBREAK =  0.28E-05  absolut break condition
   DEPER  =   0.30     relativ break condition  

   TIME   =   0.40     timestep for ELM

  volume/ion in A,a.u.               =      16.10       108.64
  Fermi-wavevector in a.u.,A,eV,Ry     =   1.441926  2.724845 28.288565  2.079151
  Thomas-Fermi vector in A             =   2.560504
 
 Write flags
   LWAVE  =      T    write WAVECAR
   LCHARG =      T    write CHGCAR
   LVTOT  =      F    write LOCPOT, total local potential
   LVHAR  =      F    write LOCPOT, Hartree potential only
   LELF   =      F    write electronic localiz. function (ELF)
   LORBIT =      0    0 simple, 1 ext, 2 COOP (PROOUT)


 Dipole corrections
   LMONO  =      F    monopole corrections only (constant potential shift)
   LDIPOL =      F    correct potential (dipole corrections)
   IDIPOL =      0    1-x, 2-y, 3-z, 4-all directions 
   EPSILON=  1.0000000 bulk dielectric constant

 Exchange correlation treatment:
   GGA     =    --    GGA type
   LEXCH   =     8    internal setting for exchange type
   VOSKOWN=      0    Vosko Wilk Nusair interpolation
   LHFCALC =     F    Hartree Fock is set to
   LHFONE  =     F    Hartree Fock one center treatment
   AEXX    =    0.0000 exact exchange contribution

 Linear response parameters
   LEPSILON=     F    determine dielectric tensor
   LRPA    =     F    only Hartree local field effects (RPA)
   LNABLA  =     F    use nabla operator in PAW spheres
   LVEL    =     F    velocity operator in full k-point grid
   LINTERFAST=   F  fast interpolation
   KINTER  =     0    interpolate to denser k-point grid
   CSHIFT  =0.1000    complex shift for real part using Kramers Kronig
   OMEGAMAX=  -1.0    maximum frequency
   DEG_THRESHOLD= 0.2000000E-02 threshold for treating states as degnerate
   RTIME   =    0.100 relaxation time in fs

 Orbital magnetization related:
   ORBITALMAG=     F  switch on orbital magnetization
   LCHIMAG   =     F  perturbation theory with respect to B field
   DQ        =  0.001000  dq finite difference perturbation B field



--------------------------------------------------------------------------------------------------------


 conjugate gradient relaxation of ions
 charge density and potential will be updated during run
 non-spin polarized calculation
 Variant of blocked Davidson
 Davidson routine will perform the subspace rotation
 perform sub-space diagonalisation
    after iterative eigenvector-optimisation
 modified Broyden-mixing scheme, WC =      100.0
 initial mixing is a Kerker type mixing with AMIX =  0.4000 and BMIX =      1.0000
 Hartree-type preconditioning will be used
 using additional bands            3
 reciprocal scheme for non local part
 use partial core corrections
 calculate Harris-corrections to forces 
   (improved forces if not selfconsistent)
 use gradient corrections 
 use of overlap-Matrix (Vanderbilt PP)
 Methfessel and Paxton  Order N= 1 SIGMA  =   0.20


--------------------------------------------------------------------------------------------------------


  energy-cutoff  :      350.00
  volume of cell :       16.10
      direct lattice vectors                 reciprocal lattice vectors
     2.834225400  0.000000000  0.000000000     0.352830089 -0.203706547 -0.144042281
     1.417112700  2.454511197  0.000000000     0.000000000  0.407413094 -0.144042281
     1.417112700  0.818170399  2.314135349     0.000000000  0.000000000  0.432126842

  length of vectors
     2.834225400  2.834225400  2.834225400     0.432126842  0.432126842  0.432126842


 
 k-points in units of 2pi/SCALE and weight: KPOINTS created by Atomic Simulation Env
   0.02205188  0.01273166  0.00900264       0.004
   0.06615564 -0.01273166 -0.00900264       0.012
   0.11025940 -0.03819498 -0.02700793       0.012
   0.15436316 -0.06365830 -0.04501321       0.012
  -0.15436316  0.11458493  0.08102378       0.012
  -0.11025940  0.08912161  0.06301850       0.012
  -0.06615564  0.06365830  0.04501321       0.012
  -0.02205188  0.03819498  0.02700793       0.012
   0.06615564  0.03819498 -0.02700793       0.012
   0.11025940  0.01273166 -0.04501321       0.023
   0.15436316 -0.01273166 -0.06301850       0.023
  -0.15436316  0.16551157  0.06301850       0.023
  -0.11025940  0.14004825  0.04501321       0.023
  -0.06615564  0.11458493  0.02700793       0.023
  -0.02205188  0.08912161  0.00900264       0.023
   0.11025940  0.06365830 -0.06301850       0.012
   0.15436316  0.03819498 -0.08102378       0.023
  -0.15436316  0.21643821  0.04501321       0.023
  -0.11025940  0.19097489  0.02700793       0.023
  -0.06615564  0.16551157  0.00900264       0.023
  -0.02205188  0.14004825 -0.00900264       0.023
   0.15436316  0.08912161 -0.09902907       0.012
  -0.15436316  0.26736484  0.02700793       0.023
  -0.11025940  0.24190152  0.00900264       0.023
  -0.06615564  0.21643821 -0.00900264       0.023
  -0.02205188  0.19097489 -0.02700793       0.023
  -0.15436316 -0.08912161  0.15304492       0.012
  -0.11025940 -0.11458493  0.13503964       0.023
  -0.06615564 -0.14004825  0.11703435       0.023
  -0.11025940 -0.06365830  0.11703435       0.012
  -0.06615564 -0.08912161  0.09902907       0.023
  -0.06615564 -0.03819498  0.08102378       0.012
   0.06615564  0.03819498  0.02700793       0.004
   0.11025940  0.01273166  0.00900264       0.012
   0.15436316 -0.01273166 -0.00900264       0.012
  -0.15436316  0.16551157  0.11703435       0.012
  -0.11025940  0.14004825  0.09902907       0.012
  -0.06615564  0.11458493  0.08102378       0.012
   0.11025940  0.06365830 -0.00900264       0.012
   0.15436316  0.03819498 -0.02700793       0.023
  -0.15436316  0.21643821  0.09902907       0.023
  -0.11025940  0.19097489  0.08102378       0.023
  -0.06615564  0.16551157  0.06301850       0.023
   0.15436316  0.08912161 -0.04501321       0.012
  -0.15436316  0.26736484  0.08102378       0.023
  -0.11025940  0.24190152  0.06301850       0.023
  -0.06615564  0.21643821  0.04501321       0.023
  -0.15436316 -0.08912161  0.20706078       0.012
  -0.11025940 -0.11458493  0.18905549       0.023
  -0.11025940 -0.06365830  0.17105021       0.012
   0.11025940  0.06365830  0.04501321       0.004
   0.15436316  0.03819498  0.02700793       0.012
  -0.15436316  0.21643821  0.15304492       0.012
  -0.11025940  0.19097489  0.13503964       0.012
   0.15436316  0.08912161  0.00900264       0.012
  -0.15436316  0.26736484  0.13503964       0.023
  -0.11025940  0.24190152  0.11703435       0.023
  -0.15436316 -0.08912161  0.26107663       0.012
   0.15436316  0.08912161  0.06301850       0.004
  -0.15436316  0.26736484  0.18905549       0.012
 
 k-points in reciprocal lattice and weights: KPOINTS created by Atomic Simulation Env
   0.06250000  0.06250000  0.06250000       0.004
   0.18750000  0.06250000  0.06250000       0.012
   0.31250000  0.06250000  0.06250000       0.012
   0.43750000  0.06250000  0.06250000       0.012
  -0.43750000  0.06250000  0.06250000       0.012
  -0.31250000  0.06250000  0.06250000       0.012
  -0.18750000  0.06250000  0.06250000       0.012
  -0.06250000  0.06250000  0.06250000       0.012
   0.18750000  0.18750000  0.06250000       0.012
   0.31250000  0.18750000  0.06250000       0.023
   0.43750000  0.18750000  0.06250000       0.023
  -0.43750000  0.18750000  0.06250000       0.023
  -0.31250000  0.18750000  0.06250000       0.023
  -0.18750000  0.18750000  0.06250000       0.023
  -0.06250000  0.18750000  0.06250000       0.023
   0.31250000  0.31250000  0.06250000       0.012
   0.43750000  0.31250000  0.06250000       0.023
  -0.43750000  0.31250000  0.06250000       0.023
  -0.31250000  0.31250000  0.06250000       0.023
  -0.18750000  0.31250000  0.06250000       0.023
  -0.06250000  0.31250000  0.06250000       0.023
   0.43750000  0.43750000  0.06250000       0.012
  -0.43750000  0.43750000  0.06250000       0.023
  -0.31250000  0.43750000  0.06250000       0.023
  -0.18750000  0.43750000  0.06250000       0.023
  -0.06250000  0.43750000  0.06250000       0.023
  -0.43750000 -0.43750000  0.06250000       0.012
  -0.31250000 -0.43750000  0.06250000       0.023
  -0.18750000 -0.43750000  0.06250000       0.023
  -0.31250000 -0.31250000  0.06250000       0.012
  -0.18750000 -0.31250000  0.06250000       0.023
  -0.18750000 -0.18750000  0.06250000       0.012
   0.18750000  0.18750000  0.18750000       0.004
   0.31250000  0.18750000  0.18750000       0.012
   0.43750000  0.18750000  0.18750000       0.012
  -0.43750000  0.18750000  0.18750000       0.012
  -0.31250000  0.18750000  0.18750000       0.012
  -0.18750000  0.18750000  0.18750000       0.012
   0.31250000  0.31250000  0.18750000       0.012
   0.43750000  0.31250000  0.18750000       0.023
  -0.43750000  0.31250000  0.18750000       0.023
  -0.31250000  0.31250000  0.18750000       0.023
  -0.18750000  0.31250000  0.18750000       0.023
   0.43750000  0.43750000  0.18750000       0.012
  -0.43750000  0.43750000  0.18750000       0.023
  -0.31250000  0.43750000  0.18750000       0.023
  -0.18750000  0.43750000  0.18750000       0.023
  -0.43750000 -0.43750000  0.18750000       0.012
  -0.31250000 -0.43750000  0.18750000       0.023
  -0.31250000 -0.31250000  0.18750000       0.012
   0.31250000  0.31250000  0.31250000       0.004
   0.43750000  0.31250000  0.31250000       0.012
  -0.43750000  0.31250000  0.31250000       0.012
  -0.31250000  0.31250000  0.31250000       0.012
   0.43750000  0.43750000  0.31250000       0.012
  -0.43750000  0.43750000  0.31250000       0.023
  -0.31250000  0.43750000  0.31250000       0.023
  -0.43750000 -0.43750000  0.31250000       0.012
   0.43750000  0.43750000  0.43750000       0.004
  -0.43750000  0.43750000  0.43750000       0.012
 
 position of ions in fractional coordinates (direct lattice) 
   0.00000000  0.00000000  0.00000000
 
 position of ions in cartesian coordinates  (Angst):
   0.00000000  0.00000000  0.00000000
 


--------------------------------------------------------------------------------------------------------


 k-point  1 :   0.0625 0.0625 0.0625  plane waves:     259
 k-point  2 :   0.1875 0.0625 0.0625  plane waves:     247
 k-point  3 :   0.3125 0.0625 0.0625  plane waves:     244
 k-point  4 :   0.4375 0.0625 0.0625  plane waves:     243
 k-point  5 :  -0.4375 0.0625 0.0625  plane waves:     238
 k-point  6 :  -0.3125 0.0625 0.0625  plane waves:     239
 k-point  7 :  -0.1875 0.0625 0.0625  plane waves:     240
 k-point  8 :  -0.0625 0.0625 0.0625  plane waves:     251
 k-point  9 :   0.1875 0.1875 0.0625  plane waves:     241
 k-point 10 :   0.3125 0.1875 0.0625  plane waves:     237
 k-point 11 :   0.4375 0.1875 0.0625  plane waves:     238
 k-point 12 :  -0.4375 0.1875 0.0625  plane waves:     242
 k-point 13 :  -0.3125 0.1875 0.0625  plane waves:     240
 k-point 14 :  -0.1875 0.1875 0.0625  plane waves:     237
 k-point 15 :  -0.0625 0.1875 0.0625  plane waves:     242
 k-point 16 :   0.3125 0.3125 0.0625  plane waves:     236
 k-point 17 :   0.4375 0.3125 0.0625  plane waves:     236
 k-point 18 :  -0.4375 0.3125 0.0625  plane waves:     238
 k-point 19 :  -0.3125 0.3125 0.0625  plane waves:     237
 k-point 20 :  -0.1875 0.3125 0.0625  plane waves:     240
 k-point 21 :  -0.0625 0.3125 0.0625  plane waves:     242
 k-point 22 :   0.4375 0.4375 0.0625  plane waves:     234
 k-point 23 :  -0.4375 0.4375 0.0625  plane waves:     235
 k-point 24 :  -0.3125 0.4375 0.0625  plane waves:     234
 k-point 25 :  -0.1875 0.4375 0.0625  plane waves:     242
 k-point 26 :  -0.0625 0.4375 0.0625  plane waves:     243
 k-point 27 :  -0.4375-0.4375 0.0625  plane waves:     233
 k-point 28 :  -0.3125-0.4375 0.0625  plane waves:     237
 k-point 29 :  -0.1875-0.4375 0.0625  plane waves:     240
 k-point 30 :  -0.3125-0.3125 0.0625  plane waves:     238
 k-point 31 :  -0.1875-0.3125 0.0625  plane waves:     238
 k-point 32 :  -0.1875-0.1875 0.0625  plane waves:     239
 k-point 33 :   0.1875 0.1875 0.1875  plane waves:     244
 k-point 34 :   0.3125 0.1875 0.1875  plane waves:     243
 k-point 35 :   0.4375 0.1875 0.1875  plane waves:     242
 k-point 36 :  -0.4375 0.1875 0.1875  plane waves:     238
 k-point 37 :  -0.3125 0.1875 0.1875  plane waves:     241
 k-point 38 :  -0.1875 0.1875 0.1875  plane waves:     239
 k-point 39 :   0.3125 0.3125 0.1875  plane waves:     237
 k-point 40 :   0.4375 0.3125 0.1875  plane waves:     239
 k-point 41 :  -0.4375 0.3125 0.1875  plane waves:     238
 k-point 42 :  -0.3125 0.3125 0.1875  plane waves:     239
 k-point 43 :  -0.1875 0.3125 0.1875  plane waves:     241
 k-point 44 :   0.4375 0.4375 0.1875  plane waves:     237
 k-point 45 :  -0.4375 0.4375 0.1875  plane waves:     239
 k-point 46 :  -0.3125 0.4375 0.1875  plane waves:     239
 k-point 47 :  -0.1875 0.4375 0.1875  plane waves:     241
 k-point 48 :  -0.4375-0.4375 0.1875  plane waves:     235
 k-point 49 :  -0.3125-0.4375 0.1875  plane waves:     237
 k-point 50 :  -0.3125-0.3125 0.1875  plane waves:     236
 k-point 51 :   0.3125 0.3125 0.3125  plane waves:     241
 k-point 52 :   0.4375 0.3125 0.3125  plane waves:     242
 k-point 53 :  -0.4375 0.3125 0.3125  plane waves:     238
 k-point 54 :  -0.3125 0.3125 0.3125  plane waves:     235
 k-point 55 :   0.4375 0.4375 0.3125  plane waves:     239
 k-point 56 :  -0.4375 0.4375 0.3125  plane waves:     238
 k-point 57 :  -0.3125 0.4375 0.3125  plane waves:     238
 k-point 58 :  -0.4375-0.4375 0.3125  plane waves:     240
 k-point 59 :   0.4375 0.4375 0.4375  plane waves:     241
 k-point 60 :  -0.4375 0.4375 0.4375  plane waves:     246

 maximum number of plane-waves:       259
 maximum index in each direction: 
   IXMAX=    4   IYMAX=    4   IZMAX=    4
   IXMIN=   -4   IYMIN=   -4   IZMIN=   -4

 WARNING: aliasing errors must be expected set NGX to  18 to avoid them
 WARNING: aliasing errors must be expected set NGY to  18 to avoid them
 WARNING: aliasing errors must be expected set NGZ to  18 to avoid them
 aliasing errors are usually negligible using standard VASP settings
 and one can safely disregard these warnings

 total amount of memory used by VASP on root node    35865. kBytes
========================================================================

   base      :      30000. kBytes
   nonl-proj :       2241. kBytes
   grid      :       1216. kBytes
   one-center:         15. kBytes
   wavefun   :       2393. kBytes
 
     INWAV:  cpu time    0.00: real time    0.00
 Broyden mixing: mesh for mixing (old mesh)
   NGX =  9   NGY =  9   NGZ =  9
  (NGX  = 28   NGY  = 28   NGZ  = 28)
  gives a total of    729 points

 initial charge density was supplied:
 charge density of overlapping atoms calculated
 number of electron      11.0000000 magnetization 
 keeping initial charge density in first step


--------------------------------------------------------------------------------------------------------


 Maximum index for augmentation-charges         8151 (set IRDMAX)


--------------------------------------------------------------------------------------------------------


 First call to EWALD:  gamma=   0.702
 Maximum number of real-space cells 3x 3x 3
 Maximum number of reciprocal cells 3x 3x 3

    FEWALD:  cpu time    0.00: real time    0.00


----------------------------------------- Iteration    1(   1)  ---------------------------------------


    POTLOK:  cpu time    0.03: real time    0.03
    SETDIJ:  cpu time    0.01: real time    0.01
     EDDAV:  cpu time    0.72: real time    0.72
       DOS:  cpu time    0.00: real time    0.00
    --------------------------------------------
      LOOP:  cpu time    0.76: real time    0.76

 eigenvalue-minimisations  :  1256
 total energy-change (2. order) : 0.2725240E+02  (-0.4665737E+03)
 number of electron      11.0000000 magnetization 
 augmentation part       11.0000000 magnetization 

 Free energy of the ion-electron system (eV)
  ---------------------------------------------------
  alpha Z        PSCENC =        52.83552426
  Ewald energy   TEWEN  =      -996.52532355
  -Hartree energ DENC   =      -193.66722716
  -exchange      EXHF   =         0.00000000
  -V(xc)+E(xc)   XCENC  =       -10.24281099
  PAW double counting   =      1003.46214933     -957.34927423
  entropy T*S    EENTRO =        -0.00244658
  eigenvalues    EBANDS =        91.50153580
  atomic energy  EATOM  =      1037.24027811
  ---------------------------------------------------
  free energy    TOTEN  =        27.25240500 eV

  energy without entropy =       27.25485157  energy(sigma->0) =       27.25322052


--------------------------------------------------------------------------------------------------------




----------------------------------------- Iteration    1(   2)  ---------------------------------------


     EDDAV:  cpu time    0.72: real time    0.72
       DOS:  cpu time    0.00: real time    0.00
    --------------------------------------------
      LOOP:  cpu time    0.72: real time    0.72

 eigenvalue-minimisations  :  1122
 total energy-change (2. order) :-0.2997023E+02  (-0.2794378E+02)
 number of electron      11.0000000 magnetization 
 augmentation part       11.0000000 magnetization 

 Free energy of the ion-electron system (eV)
  ---------------------------------------------------
  alpha Z        PSCENC =        52.83552426
  Ewald energy   TEWEN  =      -996.52532355
  -Hartree energ DENC   =      -193.66722716
  -exchange      EXHF   =         0.00000000
  -V(xc)+E(xc)   XCENC  =       -10.24281099
  PAW double counting   =      1003.46214933     -957.34927423
  entropy T*S    EENTRO =         0.00150574
  eigenvalues    EBANDS =        61.52735068
  atomic energy  EATOM  =      1037.24027811
  ---------------------------------------------------
  free energy    TOTEN  =        -2.71782781 eV

  energy without entropy =       -2.71933355  energy(sigma->0) =       -2.71832972


--------------------------------------------------------------------------------------------------------




----------------------------------------- Iteration    1(   3)  ---------------------------------------


     EDDAV:  cpu time    0.77: real time    0.77
       DOS:  cpu time    0.00: real time    0.00
    --------------------------------------------
      LOOP:  cpu time    0.78: real time    0.79

 eigenvalue-minimisations  :  1287
 total energy-change (2. order) :-0.2142733E+00  (-0.2142202E+00)
 number of electron      11.0000000 magnetization 
 augmentation part       11.0000000 magnetization 

 Free energy of the ion-electron system (eV)
  ---------------------------------------------------
  alpha Z        PSCENC =        52.83552426
  Ewald energy   TEWEN  =      -996.52532355
  -Hartree energ DENC   =      -193.66722716
  -exchange      EXHF   =         0.00000000
  -V(xc)+E(xc)   XCENC  =       -10.24281099
  PAW double counting   =      1003.46214933     -957.34927423
  entropy T*S    EENTRO =         0.00157790
  eigenvalues    EBANDS =        61.31300522
  atomic energy  EATOM  =      1037.24027811
  ---------------------------------------------------
  free energy    TOTEN  =        -2.93210111 eV

  energy without entropy =       -2.93367901  energy(sigma->0) =       -2.93262708


--------------------------------------------------------------------------------------------------------




----------------------------------------- Iteration    1(   4)  ---------------------------------------


     EDDAV:  cpu time    0.78: real time    0.78
       DOS:  cpu time    0.01: real time    0.00
    --------------------------------------------
      LOOP:  cpu time    0.79: real time    0.81

 eigenvalue-minimisations  :  1219
 total energy-change (2. order) :-0.4014241E-03  (-0.4014172E-03)
 number of electron      11.0000000 magnetization 
 augmentation part       11.0000000 magnetization 

 Free energy of the ion-electron system (eV)
  ---------------------------------------------------
  alpha Z        PSCENC =        52.83552426
  Ewald energy   TEWEN  =      -996.52532355
  -Hartree energ DENC   =      -193.66722716
  -exchange      EXHF   =         0.00000000
  -V(xc)+E(xc)   XCENC  =       -10.24281099
  PAW double counting   =      1003.46214933     -957.34927423
  entropy T*S    EENTRO =         0.00157794
  eigenvalues    EBANDS =        61.31260375
  atomic energy  EATOM  =      1037.24027811
  ---------------------------------------------------
  free energy    TOTEN  =        -2.93250254 eV

  energy without entropy =       -2.93408048  energy(sigma->0) =       -2.93302852


--------------------------------------------------------------------------------------------------------




----------------------------------------- Iteration    1(   5)  ---------------------------------------


     EDDAV:  cpu time    0.81: real time    0.81
       DOS:  cpu time    0.00: real time    0.00
    CHARGE:  cpu time    0.06: real time    0.06
    MIXING:  cpu time    0.00: real time    0.00
    --------------------------------------------
      LOOP:  cpu time    0.88: real time    0.90

 eigenvalue-minimisations  :  1132
 total energy-change (2. order) :-0.2724178E-05  (-0.2724920E-05)
 number of electron      10.9999974 magnetization 
 augmentation part        5.0520931 magnetization 

 Broyden mixing:
  rms(total) = 0.61216E+00    rms(broyden)= 0.61215E+00
  rms(prec ) = 0.13950E+01
  weight for this iteration     100.00

 Free energy of the ion-electron system (eV)
  ---------------------------------------------------
  alpha Z        PSCENC =        52.83552426
  Ewald energy   TEWEN  =      -996.52532355
  -Hartree energ DENC   =      -193.66722716
  -exchange      EXHF   =         0.00000000
  -V(xc)+E(xc)   XCENC  =       -10.24281099
  PAW double counting   =      1003.46214933     -957.34927423
  entropy T*S    EENTRO =         0.00157794
  eigenvalues    EBANDS =        61.31260103
  atomic energy  EATOM  =      1037.24027811
  ---------------------------------------------------
  free energy    TOTEN  =        -2.93250526 eV

  energy without entropy =       -2.93408320  energy(sigma->0) =       -2.93303124


--------------------------------------------------------------------------------------------------------




----------------------------------------- Iteration    1(   6)  ---------------------------------------


    POTLOK:  cpu time    0.03: real time    0.03
    SETDIJ:  cpu time    0.01: real time    0.01
     EDDAV:  cpu time    0.66: real time    0.66
       DOS:  cpu time    0.00: real time    0.00
    CHARGE:  cpu time    0.06: real time    0.06
    MIXING:  cpu time    0.00: real time    0.00
    --------------------------------------------
      LOOP:  cpu time    0.77: real time    0.79

 eigenvalue-minimisations  :  1092
 total energy-change (2. order) : 0.2579222E+00  (-0.1138390E+00)
 number of electron      10.9999973 magnetization 
 augmentation part        5.2158034 magnetization 

 Broyden mixing:
  rms(total) = 0.38565E+00    rms(broyden)= 0.38564E+00
  rms(prec ) = 0.44940E+00
  weight for this iteration     100.00

 eigenvalues of (default mixing * dielectric matrix)
  average eigenvalue GAMMA=   1.5373
  1.5373

 Free energy of the ion-electron system (eV)
  ---------------------------------------------------
  alpha Z        PSCENC =        52.83552426
  Ewald energy   TEWEN  =      -996.52532355
  -Hartree energ DENC   =      -183.80828225
  -exchange      EXHF   =         0.00000000
  -V(xc)+E(xc)   XCENC  =       -10.59543259
  PAW double counting   =      1059.57411797    -1014.68403889
  entropy T*S    EENTRO =        -0.00008436
  eigenvalues    EBANDS =        53.28865828
  atomic energy  EATOM  =      1037.24027811
  ---------------------------------------------------
  free energy    TOTEN  =        -2.67458303 eV

  energy without entropy =       -2.67449868  energy(sigma->0) =       -2.67455491


--------------------------------------------------------------------------------------------------------




----------------------------------------- Iteration    1(   7)  ---------------------------------------


    POTLOK:  cpu time    0.03: real time    0.03
    SETDIJ:  cpu time    0.01: real time    0.01
     EDDAV:  cpu time    0.69: real time    0.69
       DOS:  cpu time    0.00: real time    0.00
    CHARGE:  cpu time    0.06: real time    0.06
    MIXING:  cpu time    0.00: real time    0.00
    --------------------------------------------
      LOOP:  cpu time    0.79: real time    0.87

 eigenvalue-minimisations  :  1167
 total energy-change (2. order) : 0.1158459E-01  (-0.1568212E-02)
 number of electron      10.9999973 magnetization 
 augmentation part        5.2341265 magnetization 

 Broyden mixing:
  rms(total) = 0.20863E+00    rms(broyden)= 0.20863E+00
  rms(prec ) = 0.22162E+00
  weight for this iteration     100.00

 eigenvalues of (default mixing * dielectric matrix)
  average eigenvalue GAMMA=   1.8416
  1.0937  2.5895

 Free energy of the ion-electron system (eV)
  ---------------------------------------------------
  alpha Z        PSCENC =        52.83552426
  Ewald energy   TEWEN  =      -996.52532355
  -Hartree energ DENC   =      -181.74142960
  -exchange      EXHF   =         0.00000000
  -V(xc)+E(xc)   XCENC  =       -10.67107467
  PAW double counting   =      1100.79816473    -1056.83361237
  entropy T*S    EENTRO =        -0.00017081
  eigenvalues    EBANDS =        52.23464545
  atomic energy  EATOM  =      1037.24027811
  ---------------------------------------------------
  free energy    TOTEN  =        -2.66299845 eV

  energy without entropy =       -2.66282764  energy(sigma->0) =       -2.66294151


--------------------------------------------------------------------------------------------------------




----------------------------------------- Iteration    1(   8)  ---------------------------------------


    POTLOK:  cpu time    0.02: real time    0.03
    SETDIJ:  cpu time    0.01: real time    0.01
     EDDAV:  cpu time    0.63: real time    0.63
       DOS:  cpu time    0.00: real time    0.00
    CHARGE:  cpu time    0.06: real time    0.06
    MIXING:  cpu time    0.00: real time    0.00
    --------------------------------------------
      LOOP:  cpu time    0.73: real time    0.84

 eigenvalue-minimisations  :  1102
 total energy-change (2. order) : 0.3633360E-02  (-0.6422356E-04)
 number of electron      10.9999973 magnetization 
 augmentation part        5.2351704 magnetization 

 Broyden mixing:
  rms(total) = 0.90186E-02    rms(broyden)= 0.90180E-02
  rms(prec ) = 0.10066E-01
  weight for this iteration     100.00

 eigenvalues of (default mixing * dielectric matrix)
  average eigenvalue GAMMA=   1.4789
  2.5233  1.1007  0.8127

 Free energy of the ion-electron system (eV)
  ---------------------------------------------------
  alpha Z        PSCENC =        52.83552426
  Ewald energy   TEWEN  =      -996.52532355
  -Hartree energ DENC   =      -180.48963157
  -exchange      EXHF   =         0.00000000
  -V(xc)+E(xc)   XCENC  =       -10.71823607
  PAW double counting   =      1144.79227104    -1101.82538707
  entropy T*S    EENTRO =        -0.00018185
  eigenvalues    EBANDS =        52.03132162
  atomic energy  EATOM  =      1037.24027811
  ---------------------------------------------------
  free energy    TOTEN  =        -2.65936509 eV

  energy without entropy =       -2.65918324  energy(sigma->0) =       -2.65930447


--------------------------------------------------------------------------------------------------------




----------------------------------------- Iteration    1(   9)  ---------------------------------------


    POTLOK:  cpu time    0.03: real time    0.03
    SETDIJ:  cpu time    0.01: real time    0.01
     EDDAV:  cpu time    0.42: real time    0.42
       DOS:  cpu time    0.00: real time    0.00
    --------------------------------------------
      LOOP:  cpu time    0.46: real time    0.47

 eigenvalue-minimisations  :   570
 total energy-change (2. order) :-0.6886547E-05  (-0.8041892E-06)
 number of electron      10.9999973 magnetization 
 augmentation part        5.2351704 magnetization 

 Free energy of the ion-electron system (eV)
  ---------------------------------------------------
  alpha Z        PSCENC =        52.83552426
  Ewald energy   TEWEN  =      -996.52532355
  -Hartree energ DENC   =      -180.55145974
  -exchange      EXHF   =         0.00000000
  -V(xc)+E(xc)   XCENC  =       -10.71610643
  PAW double counting   =      1143.55397644    -1100.53707454
  entropy T*S    EENTRO =        -0.00018122
  eigenvalues    EBANDS =        52.04099469
  atomic energy  EATOM  =      1037.24027811
  ---------------------------------------------------
  free energy    TOTEN  =        -2.65937198 eV

  energy without entropy =       -2.65919076  energy(sigma->0) =       -2.65931157


--------------------------------------------------------------------------------------------------------




 average (electrostatic) potential at core
  the test charge radii are     1.1249
  (the norm of the test charge is              1.0000)
       1 -70.0903
 
 
 
 E-fermi :   9.2099     XC(G=0): -12.5567     alpha+bet :-14.2581


 k-point     1 :       0.0625    0.0625    0.0625
  band No.  band energies     occupation 
      1       1.1811      2.00000
      2       4.1978      2.00000
      3       4.2668      2.00000
      4       4.2668      2.00000
      5       5.3618      2.00000
      6       5.3618      2.00000
      7      25.4458      0.00000
      8      28.2892      0.00000
      9      29.3888      0.00000

 k-point     2 :       0.1875    0.0625    0.0625
  band No.  band energies     occupation 
      1       1.8156      2.00000
      2       4.0471      2.00000
      3       4.4255      2.00000
      4       4.4536      2.00000
      5       5.2140      2.00000
      6       5.4574      2.00000
      7      24.7576      0.00000
      8      26.0931      0.00000
      9      28.6460      0.00000

 k-point     3 :       0.3125    0.0625    0.0625
  band No.  band energies     occupation 
      1       2.6670      2.00000
      2       4.3415      2.00000
      3       4.4856      2.00000
      4       4.5954      2.00000
      5       5.4027      2.00000
      6       5.9347      2.00000
      7      20.1060      0.00000
      8      25.5191      0.00000
      9      28.1316      0.00000

 k-point     4 :       0.4375    0.0625    0.0625
  band No.  band energies     occupation 
      1       2.6285      2.00000
      2       4.2350      2.00000
      3       4.3159      2.00000
      4       5.7729      2.00000
      5       5.9608      2.00000
      6       7.5340      2.00000
      7      15.4440      0.00000
      8      24.7910      0.00000
      9      26.9880      0.00000

 k-point     5 :      -0.4375    0.0625    0.0625
  band No.  band energies     occupation 
      1       2.5586      2.00000
      2       4.1560      2.00000
      3       4.2707      2.00000
      4       5.9486      2.00000
      5       6.2594      2.00000
      6       8.9821      2.06835
      7      13.3291      0.00000
      8      24.5977      0.00000
      9      27.1081      0.00000

 k-point     6 :      -0.3125    0.0625    0.0625
  band No.  band energies     occupation 
      1       2.6720      2.00000
      2       4.2737      2.00000
      3       4.3954      2.00000
      4       5.3094      2.00000
      5       6.0484      2.00000
      6       6.6855      2.00000
      7      16.9049      0.00000
      8      25.2016      0.00000
      9      27.3333      0.00000

 k-point     7 :      -0.1875    0.0625    0.0625
  band No.  band energies     occupation 
      1       2.4800      2.00000
      2       4.1235      2.00000
      3       4.4968      2.00000
      4       4.5232      2.00000
      5       5.3894      2.00000
      6       5.6071      2.00000
      7      21.7431      0.00000
      8      26.1079      0.00000
      9      28.0814      0.00000

 k-point     8 :      -0.0625    0.0625    0.0625
  band No.  band energies     occupation 
      1       1.5116      2.00000
      2       4.0761      2.00000
      3       4.3827      2.00000
      4       4.3855      2.00000
      5       5.2343      2.00000
      6       5.4305      2.00000
      7      25.4747      0.00000
      8      27.0826      0.00000
      9      28.6651      0.00000

 k-point     9 :       0.1875    0.1875    0.0625
  band No.  band energies     occupation 
      1       2.1150      2.00000
      2       3.8367      2.00000
      3       4.5974      2.00000
      4       4.6160      2.00000
      5       5.0884      2.00000
      6       5.5592      2.00000
      7      25.0891      0.00000
      8      26.3040      0.00000
      9      27.2271      0.00000

 k-point    10 :       0.3125    0.1875    0.0625
  band No.  band energies     occupation 
      1       2.9520      2.00000
      2       3.6532      2.00000
      3       4.4657      2.00000
      4       4.8984      2.00000
      5       5.4306      2.00000
      6       6.0438      2.00000
      7      22.1953      0.00000
      8      24.2134      0.00000
      9      26.9282      0.00000

 k-point    11 :       0.4375    0.1875    0.0625
  band No.  band energies     occupation 
      1       3.0155      2.00000
      2       4.0634      2.00000
      3       4.4207      2.00000
      4       4.8142      2.00000
      5       6.0525      2.00000
      6       7.8557      2.00000
      7      17.3206      0.00000
      8      23.7105      0.00000
      9      24.9309      0.00000

 k-point    12 :      -0.4375    0.1875    0.0625
  band No.  band energies     occupation 
      1       2.9327      2.00000
      2       3.9079      2.00000
      3       4.6239      2.00000
      4       5.0600      2.00000
      5       6.2152      2.00000
      6      10.5080      0.00000
      7      13.4944      0.00000
      8      23.2168      0.00000
      9      24.2532      0.00000

 k-point    13 :      -0.3125    0.1875    0.0625
  band No.  band energies     occupation 
      1       3.0437      2.00000
      2       4.0053      2.00000
      3       4.6084      2.00000
      4       4.8814      2.00000
      5       5.8954      2.00000
      6       8.8483      2.02829
      7      15.8765      0.00000
      8      22.5317      0.00000
      9      25.4209      0.00000

 k-point    14 :      -0.1875    0.1875    0.0625
  band No.  band energies     occupation 
      1       3.1898      2.00000
      2       3.8563      2.00000
      3       4.3371      2.00000
      4       4.8695      2.00000
      5       5.2613      2.00000
      6       6.7278      2.00000
      7      20.5799      0.00000
      8      22.7390      0.00000
      9      27.2915      0.00000

 k-point    15 :      -0.0625    0.1875    0.0625
  band No.  band energies     occupation 
      1       2.3620      2.00000
      2       3.8863      2.00000
      3       4.5337      2.00000
      4       4.6120      2.00000
      5       5.1553      2.00000
      6       5.6649      2.00000
      7      23.5162      0.00000
      8      25.2777      0.00000
      9      28.1883      0.00000

 k-point    16 :       0.3125    0.3125    0.0625
  band No.  band energies     occupation 
      1       3.0184      2.00000
      2       3.2294      2.00000
      3       5.1015      2.00000
      4       5.3255      2.00000
      5       5.9238      2.00000
      6       6.1116      2.00000
      7      22.5705      0.00000
      8      23.6854      0.00000
      9      24.2998      0.00000

 k-point    17 :       0.4375    0.3125    0.0625
  band No.  band energies     occupation 
      1       2.9861      2.00000
      2       3.1507      2.00000
      3       5.0029      2.00000
      4       5.6455      2.00000
      5       6.1019      2.00000
      6       8.2320      2.00000
      7      19.7170      0.00000
      8      21.6529      0.00000
      9      21.7926      0.00000

 k-point    18 :      -0.4375    0.3125    0.0625
  band No.  band energies     occupation 
      1       3.0258      2.00000
      2       3.4959      2.00000
      3       4.7018      2.00000
      4       5.3697      2.00000
      5       6.2729      2.00000
      6      11.4518      0.00000
      7      15.3665      0.00000
      8      19.6327      0.00000
      9      22.0556      0.00000

 k-point    19 :      -0.3125    0.3125    0.0625
  band No.  band energies     occupation 
      1       3.3518      2.00000
      2       3.8540      2.00000
      3       4.2716      2.00000
      4       5.1785      2.00000
      5       5.9204      2.00000
      6      11.6251      0.00000
      7      15.5699      0.00000
      8      18.2688      0.00000
      9      23.6049      0.00000

 k-point    20 :      -0.1875    0.3125    0.0625
  band No.  band energies     occupation 
      1       3.4903      2.00000
      2       3.9029      2.00000
      3       4.1932      2.00000
      4       5.0265      2.00000
      5       5.5478      2.00000
      6       8.8110      2.01628
      7      17.9016      0.00000
      8      20.1802      0.00000
      9      25.4722      0.00000

 k-point    21 :      -0.0625    0.3125    0.0625
  band No.  band energies     occupation 
      1       2.8645      2.00000
      2       4.2811      2.00000
      3       4.5013      2.00000
      4       4.6461      2.00000
      5       5.7034      2.00000
      6       6.6361      2.00000
      7      18.6308      0.00000
      8      24.6745      0.00000
      9      26.8731      0.00000

 k-point    22 :       0.4375    0.4375    0.0625
  band No.  band energies     occupation 
      1       2.6224      2.00000
      2       2.7467      2.00000
      3       6.0139      2.00000
      4       6.0516      2.00000
      5       6.3051      2.00000
      6       9.2285      0.84280
      7      18.8451      0.00000
      8      20.2413      0.00000
      9      21.0431      0.00000

 k-point    23 :      -0.4375    0.4375    0.0625
  band No.  band energies     occupation 
      1       2.6487      2.00000
      2       2.8192      2.00000
      3       5.7172      2.00000
      4       5.9990      2.00000
      5       6.4294      2.00000
      6      11.5858      0.00000
      7      16.8459      0.00000
      8      18.4091      0.00000
      9      20.2142      0.00000

 k-point    24 :      -0.3125    0.4375    0.0625
  band No.  band energies     occupation 
      1       2.9622      2.00000
      2       3.3861      2.00000
      3       4.8574      2.00000
      4       5.5550      2.00000
      5       6.2425      2.00000
      6      13.3785      0.00000
      7      14.9033      0.00000
      8      17.3139      0.00000
      9      21.6718      0.00000

 k-point    25 :      -0.1875    0.4375    0.0625
  band No.  band energies     occupation 
      1       3.1963      2.00000
      2       3.7729      2.00000
      3       4.6523      2.00000
      4       4.9131      2.00000
      5       6.0996      2.00000
      6      11.5756      0.00000
      7      13.7893      0.00000
      8      20.7546      0.00000
      9      23.7932      0.00000

 k-point    26 :      -0.0625    0.4375    0.0625
  band No.  band energies     occupation 
      1       2.7238      2.00000
      2       4.0916      2.00000
      3       4.4098      2.00000
      4       5.4625      2.00000
      5       6.1700      2.00000
      6       8.9157      2.05786
      7      14.2709      0.00000
      8      24.3228      0.00000
      9      25.8046      0.00000

 k-point    27 :      -0.4375   -0.4375    0.0625
  band No.  band energies     occupation 
      1       2.4832      2.00000
      2       2.6380      2.00000
      3       6.1566      2.00000
      4       6.2935      2.00000
      5       6.4434      2.00000
      6      10.7734      0.00000
      7      16.8068      0.00000
      8      19.6693      0.00000
      9      20.4419      0.00000

 k-point    28 :      -0.3125   -0.4375    0.0625
  band No.  band energies     occupation 
      1       2.7814      2.00000
      2       2.9289      2.00000
      3       5.4184      2.00000
      4       5.9307      2.00000
      5       6.2905      2.00000
      6       9.9729      0.00000
      7      18.6183      0.00000
      8      19.2405      0.00000
      9      20.7341      0.00000

 k-point    29 :      -0.1875   -0.4375    0.0625
  band No.  band energies     occupation 
      1       3.0683      2.00000
      2       3.7381      2.00000
      3       4.5127      2.00000
      4       5.0897      2.00000
      5       6.2324      2.00000
      6       9.5105     -0.05503
      7      16.2068      0.00000
      8      22.3098      0.00000
      9      22.7905      0.00000

 k-point    30 :      -0.3125   -0.3125    0.0625
  band No.  band energies     occupation 
      1       2.8493      2.00000
      2       2.9538      2.00000
      3       5.6267      2.00000
      4       5.7135      2.00000
      5       6.1188      2.00000
      6       7.4916      2.00000
      7      21.2296      0.00000
      8      21.6010      0.00000
      9      22.1660      0.00000

 k-point    31 :      -0.1875   -0.3125    0.0625
  band No.  band energies     occupation 
      1       3.1512      2.00000
      2       3.4179      2.00000
      3       4.5899      2.00000
      4       5.2602      2.00000
      5       5.8325      2.00000
      6       6.8470      2.00000
      7      20.9040      0.00000
      8      22.9254      0.00000
      9      24.5194      0.00000

 k-point    32 :      -0.1875   -0.1875    0.0625
  band No.  band energies     occupation 
      1       2.7763      2.00000
      2       3.5367      2.00000
      3       4.7365      2.00000
      4       4.9399      2.00000
      5       5.3202      2.00000
      6       5.7307      2.00000
      7      23.9424      0.00000
      8      25.4460      0.00000
      9      26.0267      0.00000

 k-point    33 :       0.1875    0.1875    0.1875
  band No.  band energies     occupation 
      1       2.0633      2.00000
      2       4.1304      2.00000
      3       4.4449      2.00000
      4       4.4449      2.00000
      5       5.3646      2.00000
      6       5.3646      2.00000
      7      23.2538      0.00000
      8      26.3416      0.00000
      9      29.7492      0.00000

 k-point    34 :       0.3125    0.1875    0.1875
  band No.  band energies     occupation 
      1       2.7780      2.00000
      2       3.9061      2.00000
      3       4.5144      2.00000
      4       4.6795      2.00000
      5       5.0762      2.00000
      6       6.0679      2.00000
      7      21.9846      0.00000
      8      24.0056      0.00000
      9      28.6675      0.00000

 k-point    35 :       0.4375    0.1875    0.1875
  band No.  band energies     occupation 
      1       3.3662      2.00000
      2       3.9564      2.00000
      3       4.3962      2.00000
      4       4.8155      2.00000
      5       5.2644      2.00000
      6       7.6236      2.00000
      7      19.1498      0.00000
      8      21.3726      0.00000
      9      27.2247      0.00000

 k-point    36 :      -0.4375    0.1875    0.1875
  band No.  band energies     occupation 
      1       3.0993      2.00000
      2       3.9189      2.00000
      3       4.7008      2.00000
      4       4.8862      2.00000
      5       5.9334      2.00000
      6      10.0987      0.00000
      7      14.6777      0.00000
      8      21.5124      0.00000
      9      26.1614      0.00000

 k-point    37 :      -0.3125    0.1875    0.1875
  band No.  band energies     occupation 
      1       2.9700      2.00000
      2       3.8855      2.00000
      3       4.7669      2.00000
      4       4.7845      2.00000
      5       6.2924      2.00000
      6      10.0086      0.00000
      7      14.5619      0.00000
      8      22.6516      0.00000
      9      24.7359      0.00000

 k-point    38 :      -0.1875    0.1875    0.1875
  band No.  band energies     occupation 
      1       3.0372      2.00000
      2       3.7775      2.00000
      3       4.4776      2.00000
      4       4.9326      2.00000
      5       6.1213      2.00000
      6       7.1356      2.00000
      7      19.0086      0.00000
      8      24.4731      0.00000
      9      24.4995      0.00000

 k-point    39 :       0.3125    0.3125    0.1875
  band No.  band energies     occupation 
      1       2.8816      2.00000
      2       4.0299      2.00000
      3       4.3877      2.00000
      4       4.6859      2.00000
      5       5.8779      2.00000
      6       5.9826      2.00000
      7      20.3223      0.00000
      8      25.7193      0.00000
      9      26.2134      0.00000

 k-point    40 :       0.4375    0.3125    0.1875
  band No.  band energies     occupation 
      1       3.3449      2.00000
      2       3.7831      2.00000
      3       4.1452      2.00000
      4       5.1880      2.00000
      5       5.6410      2.00000
      6       7.7574      2.00000
      7      19.3109      0.00000
      8      21.5252      0.00000
      9      24.8705      0.00000

 k-point    41 :      -0.4375    0.3125    0.1875
  band No.  band energies     occupation 
      1       3.5759      2.00000
      2       3.6800      2.00000
      3       4.0653      2.00000
      4       5.2816      2.00000
      5       5.8977      2.00000
      6      10.3544      0.00000
      7      16.8401      0.00000
      8      19.2287      0.00000
      9      22.7933      0.00000

 k-point    42 :      -0.3125    0.3125    0.1875
  band No.  band energies     occupation 
      1       3.3315      2.00000
      2       3.6200      2.00000
      3       4.3711      2.00000
      4       5.1953      2.00000
      5       6.1971      2.00000
      6      12.4308      0.00000
      7      14.0880      0.00000
      8      20.2231      0.00000
      9      21.2024      0.00000

 k-point    43 :      -0.1875    0.3125    0.1875
  band No.  band energies     occupation 
      1       3.2427      2.00000
      2       3.4893      2.00000
      3       4.3805      2.00000
      4       5.5150      2.00000
      5       5.9682      2.00000
      6       9.2301      0.82934
      7      18.2106      0.00000
      8      20.4525      0.00000
      9      22.1597      0.00000

 k-point    44 :       0.4375    0.4375    0.1875
  band No.  band energies     occupation 
      1       2.9672      2.00000
      2       3.4355      2.00000
      3       4.8391      2.00000
      4       5.2394      2.00000
      5       6.2885      2.00000
      6       8.7057      2.00211
      7      17.8520      0.00000
      8      21.9375      0.00000
      9      23.0971      0.00000

 k-point    45 :      -0.4375    0.4375    0.1875
  band No.  band energies     occupation 
      1       3.0713      2.00000
      2       3.2561      2.00000
      3       4.7110      2.00000
      4       5.6890      2.00000
      5       6.2401      2.00000
      6      11.0386      0.00000
      7      17.3546      0.00000
      8      19.2666      0.00000
      9      19.8905      0.00000

 k-point    46 :      -0.3125    0.4375    0.1875
  band No.  band energies     occupation 
      1       3.2255      2.00000
      2       3.6204      2.00000
      3       4.2372      2.00000
      4       5.4168      2.00000
      5       6.4234      2.00000
      6      14.1930      0.00000
      7      15.5649      0.00000
      8      17.3941      0.00000
      9      18.5521      0.00000

 k-point    47 :      -0.1875    0.4375    0.1875
  band No.  band energies     occupation 
      1       3.3832      2.00000
      2       3.6290      2.00000
      3       4.1330      2.00000
      4       5.4053      2.00000
      5       6.2172      2.00000
      6      12.2212      0.00000
      7      16.0241      0.00000
      8      18.5287      0.00000
      9      20.1401      0.00000

 k-point    48 :      -0.4375   -0.4375    0.1875
  band No.  band energies     occupation 
      1       2.7357      2.00000
      2       3.0469      2.00000
      3       5.4350      2.00000
      4       5.8000      2.00000
      5       6.3168      2.00000
      6      12.2762      0.00000
      7      16.3820      0.00000
      8      17.1852      0.00000
      9      21.5879      0.00000

 k-point    49 :      -0.3125   -0.4375    0.1875
  band No.  band energies     occupation 
      1       2.9402      2.00000
      2       3.1583      2.00000
      3       4.9626      2.00000
      4       5.6926      2.00000
      5       6.4248      2.00000
      6      12.8153      0.00000
      7      16.7131      0.00000
      8      17.3427      0.00000
      9      19.3516      0.00000

 k-point    50 :      -0.3125   -0.3125    0.1875
  band No.  band energies     occupation 
      1       2.8333      2.00000
      2       3.1750      2.00000
      3       5.2081      2.00000
      4       5.5580      2.00000
      5       6.3482      2.00000
      6      10.5483      0.00000
      7      16.9520      0.00000
      8      19.2743      0.00000
      9      22.1036      0.00000

 k-point    51 :       0.3125    0.3125    0.3125
  band No.  band energies     occupation 
      1       2.6184      2.00000
      2       4.3812      2.00000
      3       4.3812      2.00000
      4       5.3401      2.00000
      5       5.7506      2.00000
      6       5.7506      2.00000
      7      18.4026      0.00000
      8      25.5870      0.00000
      9      29.1416      0.00000

 k-point    52 :       0.4375    0.3125    0.3125
  band No.  band energies     occupation 
      1       2.9208      2.00000
      2       4.1834      2.00000
      3       4.5248      2.00000
      4       4.9640      2.00000
      5       5.6282      2.00000
      6       7.5637      2.00000
      7      17.1491      0.00000
      8      23.5391      0.00000
      9      26.7219      0.00000

 k-point    53 :      -0.4375    0.3125    0.3125
  band No.  band energies     occupation 
      1       3.4348      2.00000
      2       3.9299      2.00000
      3       4.3393      2.00000
      4       4.9816      2.00000
      5       5.6614      2.00000
      6      10.0758      0.00000
      7      16.6593      0.00000
      8      19.0687      0.00000
      9      26.2936      0.00000

 k-point    54 :      -0.3125    0.3125    0.3125
  band No.  band energies     occupation 
      1       3.0961      2.00000
      2       3.6938      2.00000
      3       4.5988      2.00000
      4       5.3387      2.00000
      5       6.0401      2.00000
      6      13.0966      0.00000
      7      14.4095      0.00000
      8      17.6467      0.00000
      9      23.6351      0.00000

 k-point    55 :       0.4375    0.4375    0.3125
  band No.  band energies     occupation 
      1       2.8069      2.00000
      2       4.0970      2.00000
      3       4.5297      2.00000
      4       5.0104      2.00000
      5       6.2410      2.00000
      6       8.2061      2.00000
      7      15.6159      0.00000
      8      24.5912      0.00000
      9      25.8521      0.00000

 k-point    56 :      -0.4375    0.4375    0.3125
  band No.  band energies     occupation 
      1       3.2116      2.00000
      2       3.7688      2.00000
      3       4.5339      2.00000
      4       4.9697      2.00000
      5       6.1109      2.00000
      6      10.5028      0.00000
      7      14.8295      0.00000
      8      21.7174      0.00000
      9      22.9394      0.00000

 k-point    57 :      -0.3125    0.4375    0.3125
  band No.  band energies     occupation 
      1       3.2875      2.00000
      2       3.6866      2.00000
      3       4.2533      2.00000
      4       5.3445      2.00000
      5       6.2160      2.00000
      6      13.4753      0.00000
      7      14.7074      0.00000
      8      17.7688      0.00000
      9      20.9112      0.00000

 k-point    58 :      -0.4375   -0.4375    0.3125
  band No.  band energies     occupation 
      1       3.0784      2.00000
      2       3.7340      2.00000
      3       4.6534      2.00000
      4       5.0678      2.00000
      5       6.2019      2.00000
      6      11.9934      0.00000
      7      13.8444      0.00000
      8      20.0613      0.00000
      9      23.9987      0.00000

 k-point    59 :       0.4375    0.4375    0.4375
  band No.  band energies     occupation 
      1       2.5083      2.00000
      2       4.2279      2.00000
      3       4.2279      2.00000
      4       6.1869      2.00000
      5       6.1869      2.00000
      6       7.9623      2.00000
      7      14.1252      0.00000
      8      24.7544      0.00000
      9      27.9165      0.00000

 k-point    60 :      -0.4375    0.4375    0.4375
  band No.  band energies     occupation 
      1       2.7666      2.00000
      2       4.0343      2.00000
      3       4.4367      2.00000
      4       5.4546      2.00000
      5       6.1647      2.00000
      6       9.8514     -0.00006
      7      13.4149      0.00000
      8      23.7249      0.00000
      9      26.0236      0.00000


--------------------------------------------------------------------------------------------------------


 soft charge-density along one line, spin component           1
         0         1         2         3         4         5         6         7         8         9
x     5.7648    0.0000    0.9418    0.0000   -0.2904    0.0000   -0.0121    0.0000    0.0159    0.0000
x     0.0009    0.0000    0.0000    0.0000    0.0000    0.0000
y     5.7648    0.0000    0.9418    0.0000   -0.2904    0.0000   -0.0121    0.0000    0.0159    0.0000
y     0.0009    0.0000    0.0000    0.0000    0.0000    0.0000
z     5.7648    0.0000    0.9418    0.0000   -0.2904    0.0000   -0.0121    0.0000    0.0159    0.0000
z     0.0009    0.0000    0.0000    0.0000    0.0000    0.0000
 total charge-density along one line
x    11.0000    0.0000    4.5123    0.0000    0.6840    0.0000    0.0027    0.0000    0.0110    0.0000
x     0.0022    0.0000   -0.0006    0.0000    0.0003    0.0000   -0.0002    0.0000    0.0001    0.0000
x    -0.0001    0.0000    0.0000    0.0000    0.0000    0.0000    0.0000    0.0000    0.0000    0.0000
y    11.0000    0.0000    4.5123    0.0000    0.6840    0.0000    0.0027    0.0000    0.0110    0.0000
y     0.0022    0.0000   -0.0006    0.0000    0.0003    0.0000   -0.0002    0.0000    0.0001    0.0000
y    -0.0001    0.0000    0.0000    0.0000    0.0000    0.0000    0.0000    0.0000    0.0000    0.0000
z    11.0000    0.0000    4.5123    0.0000    0.6840    0.0000    0.0027    0.0000    0.0110    0.0000
z     0.0022    0.0000   -0.0006    0.0000    0.0003    0.0000   -0.0002    0.0000    0.0001    0.0000
z    -0.0001    0.0000    0.0000    0.0000    0.0000    0.0000    0.0000    0.0000    0.0000    0.0000
 
 pseudopotential strength for first ion, spin component:           1
 -3.701   0.000   0.000  -0.005   0.000  -3.947   0.000   0.000
  0.000  -3.697   0.000   0.000  -0.005   0.000  -3.943   0.000
  0.000   0.000  -3.705   0.000   0.000   0.000   0.000  -3.951
 -0.005   0.000   0.000  -3.697   0.000  -0.005   0.000   0.000
  0.000  -0.005   0.000   0.000  -3.701   0.000  -0.005   0.000
 -3.947   0.000   0.000  -0.005   0.000  -4.158   0.000   0.000
  0.000  -3.943   0.000   0.000  -0.005   0.000  -4.154   0.000
  0.000   0.000  -3.951   0.000   0.000   0.000   0.000  -4.161
 -0.005   0.000   0.000  -3.943   0.000  -0.005   0.000   0.000
  0.000  -0.005   0.000   0.000  -3.947   0.000  -0.005   0.000
  0.000   0.000   0.000   0.000   0.000   0.000   0.000   0.000
  0.000   0.000   0.000   0.000   0.000   0.000   0.000   0.000
  0.000   0.000   0.000   0.000   0.000   0.000   0.000   0.000
  0.000   0.000   0.000   0.000   0.000   0.000   0.000   0.000
  0.000   0.000   0.000   0.000   0.000   0.000   0.000   0.000
  0.000   0.000   0.000   0.000   0.000   0.000   0.000   0.000
  0.000   0.000   0.000   0.000   0.000   0.000   0.000   0.000
  0.000   0.000   0.000   0.000   0.000   0.000   0.000   0.000
 total augmentation occupancy for first ion, spin component:           1
  3.725   0.000   0.000   0.007   0.000  -1.741   0.000   0.000  -0.079   0.000   0.000   0.000   0.000   0.000   0.000   0.000
  0.000   3.720   0.000   0.000   0.007   0.000  -1.686   0.000   0.000  -0.079   0.000   0.000   0.000   0.000   0.000   0.000
  0.000   0.000   3.730   0.000   0.000   0.000   0.000  -1.797   0.000   0.000   0.000   0.000   0.000   0.000   0.000   0.000
  0.007   0.000   0.000   3.720   0.000  -0.079   0.000   0.000  -1.686   0.000   0.000   0.000   0.000   0.000   0.000   0.000
  0.000   0.007   0.000   0.000   3.725   0.000  -0.079   0.000   0.000  -1.741   0.000   0.000   0.000   0.000   0.000   0.000
 -1.741   0.000   0.000  -0.079   0.000   1.707   0.000   0.000   0.139   0.000   0.000   0.000   0.000   0.000   0.000   0.000
  0.000  -1.686   0.000   0.000  -0.079   0.000   1.609   0.000   0.000   0.139   0.000   0.000   0.000   0.000   0.000   0.000
  0.000   0.000  -1.797   0.000   0.000   0.000   0.000   1.805   0.000   0.000   0.000   0.000   0.000   0.000   0.000   0.000
 -0.079   0.000   0.000  -1.686   0.000   0.139   0.000   0.000   1.609   0.000   0.000   0.000   0.000   0.000   0.000   0.000
  0.000  -0.079   0.000   0.000  -1.741   0.000   0.139   0.000   0.000   1.707   0.000   0.000   0.000   0.000   0.000   0.000
  0.000   0.000   0.000   0.000   0.000   0.000   0.000   0.000   0.000   0.000   2.353  -0.458   0.000   0.000   0.000   0.000
  0.000   0.000   0.000   0.000   0.000   0.000   0.000   0.000   0.000   0.000  -0.458   0.110   0.000   0.000   0.000   0.000
  0.000   0.000   0.000   0.000   0.000   0.000   0.000   0.000   0.000   0.000   0.000   0.000   0.198   0.000   0.000  -0.012
  0.000   0.000   0.000   0.000   0.000   0.000   0.000   0.000   0.000   0.000   0.000   0.000   0.000   0.198   0.000   0.000
  0.000   0.000   0.000   0.000   0.000   0.000   0.000   0.000   0.000   0.000   0.000   0.000   0.000   0.000   0.198   0.000
  0.000   0.000   0.000   0.000   0.000   0.000   0.000   0.000   0.000   0.000   0.000   0.000  -0.012   0.000   0.000   0.001
  0.000   0.000   0.000   0.000   0.000   0.000   0.000   0.000   0.000   0.000   0.000   0.000   0.000  -0.012   0.000   0.000
  0.000   0.000   0.000   0.000   0.000   0.000   0.000   0.000   0.000   0.000   0.000   0.000   0.000   0.000  -0.012   0.000


------------------------ aborting loop because EDIFF is reached ----------------------------------------


    CHARGE:  cpu time    0.06: real time    0.06
    FORLOC:  cpu time    0.00: real time    0.00
    FORNL :  cpu time    0.08: real time    0.08
    STRESS:  cpu time    0.27: real time    0.27
    FORCOR:  cpu time    0.03: real time    0.03
    FORHAR:  cpu time    0.01: real time    0.01
    MIXING:  cpu time    0.00: real time    0.00
    OFIELD:  cpu time    0.00: real time    0.00

  FORCE on cell =-STRESS in cart. coord.  units (eV):
  Direction    XX          YY          ZZ          XY          YZ          ZX
  --------------------------------------------------------------------------------------
  Alpha Z    52.83552    52.83552    52.83552
  Ewald    -332.17512  -332.17512  -332.17512     0.00000     0.00000     0.00000
  Hartree    60.18150    60.18150    60.18150     0.00000     0.00000     0.00000
  E(xc)     -58.33376   -58.33375   -58.33375     0.00000     0.00000     0.00000
  Local      56.28484    56.28473    56.28470     0.00009     0.00004     0.00007
  n-local    -7.29183    -6.64756    -5.39891    -0.64139    -0.28025     1.71196
  augment    91.98228    91.98238    91.98241    -0.00009    -0.00004    -0.00006
  Kinetic   137.19619   137.06507   136.11915    -0.07721    -0.03191    -0.71562
  Fock        0.00000     0.00000     0.00000     0.00000     0.00000     0.00000
  -------------------------------------------------------------------------------------
  Total       1.12264     1.12264     1.12264     0.00000     0.00000     0.00000
  in kB     111.72865   111.72865   111.72865     0.00000     0.00000     0.00000
  external pressure =      111.73 kB  Pullay stress =        0.00 kB


 VOLUME and BASIS-vectors are now :
 -----------------------------------------------------------------------------
  energy-cutoff  :      350.00
  volume of cell :       16.10
      direct lattice vectors                 reciprocal lattice vectors
     2.834225400  0.000000000  0.000000000     0.352830089 -0.203706547 -0.144042281
     1.417112700  2.454511197  0.000000000     0.000000000  0.407413094 -0.144042281
     1.417112700  0.818170399  2.314135349     0.000000000  0.000000000  0.432126842

  length of vectors
     2.834225400  2.834225400  2.834225400     0.432126842  0.432126842  0.432126842


 FORCES acting on ions
    electron-ion (+dipol)            ewald-force                    non-local-force                 convergence-correction
 -----------------------------------------------------------------------------------------------
   -.341E-13 0.270E-14 -.157E-14   -.166E-15 0.511E-15 -.253E-15   0.000E+00 0.000E+00 0.000E+00   -.319E-13 -.223E-13 -.427E-14
 -----------------------------------------------------------------------------------------------
   -.341E-13 0.270E-14 -.157E-14   -.166E-15 0.511E-15 -.253E-15   0.000E+00 0.000E+00 0.000E+00   -.319E-13 -.223E-13 -.427E-14
 
 
 POSITION                                       TOTAL-FORCE (eV/Angst)
 -----------------------------------------------------------------------------------
      0.00000      0.00000      0.00000         0.000000      0.000000      0.000000
 -----------------------------------------------------------------------------------
    total drift:                                0.000000      0.000000      0.000000


--------------------------------------------------------------------------------------------------------



  FREE ENERGIE OF THE ION-ELECTRON SYSTEM (eV)
  ---------------------------------------------------
  free  energy   TOTEN  =        -2.65937198 eV

  energy  without entropy=       -2.65919076  energy(sigma->0) =       -2.65931157
 


--------------------------------------------------------------------------------------------------------


    POTLOK:  cpu time    0.03: real time    0.03


--------------------------------------------------------------------------------------------------------


 stress matrix after NEB project (eV)
      1.12264      0.00000      0.00000
      0.00000      1.12264      0.00000
      0.00000      0.00000      1.12264
  FORCES: max atom, RMS     0.000000    0.000000
  FORCE total and by dimension    0.000000    0.000000
  Stress total and by dimension    1.944477    1.122644


--------------------------------------------------------------------------------------------------------


  
 reached required accuracy - stopping structural energy minimisation
 writing wavefunctions
     LOOP+:  cpu time    7.22: real time    7.62
    4ORBIT:  cpu time    0.00: real time    0.00

 total amount of memory used by VASP on root node    35865. kBytes
========================================================================

   base      :      30000. kBytes
   nonl-proj :       2241. kBytes
   grid      :       1216. kBytes
   one-center:         15. kBytes
   wavefun   :       2393. kBytes
 
  
  
 General timing and accounting informations for this job:
 ========================================================
  
                  Total CPU time used (sec):        7.736
                            User time (sec):        7.544
                          System time (sec):        0.192
                         Elapsed time (sec):        8.322
  
                   Maximum memory used (kb):           0.
                   Average memory used (kb):           0.
  
                          Minor page faults:         5560
                          Major page faults:            0
                 Voluntary context switches:         4591
