<?xml version="1.0" encoding="ISO-8859-1"?>
<modeling>
 <generator>
  <i name="program" type="string">vasp </i>
  <i name="version" type="string">5.3.5  </i>
  <i name="subversion" type="string">31Mar14 (build Jan 09 2015 16:57:47) complex                          serial </i>
  <i name="platform" type="string">LinuxIFC </i>
  <i name="date" type="string">2015 03 24 </i>
  <i name="time" type="string">14:26:01 </i>
 </generator>
 <incar>
  <i type="string" name="PREC">normal</i>
  <i type="int" name="IBRION">     2</i>
  <i type="int" name="NSW">    30</i>
  <i type="int" name="ISIF">     2</i>
  <i name="ENCUT">    350.00000000</i>
 </incar>
 <kpoints>
  <generation param="Monkhorst-Pack">
   <v type="int" name="divisions">       8        8        8 </v>
   <v name="usershift">      0.00000000       0.00000000       0.00000000 </v>
   <v name="genvec1">      0.12500000       0.00000000       0.00000000 </v>
   <v name="genvec2">      0.00000000       0.12500000       0.00000000 </v>
   <v name="genvec3">      0.00000000       0.00000000       0.12500000 </v>
   <v name="shift">      0.50000000       0.50000000       0.50000000 </v>
  </generation>
  <varray name="kpointlist" >
   <v>       0.06250000       0.06250000       0.06250000 </v>
   <v>       0.18750000       0.06250000       0.06250000 </v>
   <v>       0.31250000       0.06250000       0.06250000 </v>
   <v>       0.43750000       0.06250000       0.06250000 </v>
   <v>      -0.43750000       0.06250000       0.06250000 </v>
   <v>      -0.31250000       0.06250000       0.06250000 </v>
   <v>      -0.18750000       0.06250000       0.06250000 </v>
   <v>      -0.06250000       0.06250000       0.06250000 </v>
   <v>       0.18750000       0.18750000       0.06250000 </v>
   <v>       0.31250000       0.18750000       0.06250000 </v>
   <v>       0.43750000       0.18750000       0.06250000 </v>
   <v>      -0.43750000       0.18750000       0.06250000 </v>
   <v>      -0.31250000       0.18750000       0.06250000 </v>
   <v>      -0.18750000       0.18750000       0.06250000 </v>
   <v>      -0.06250000       0.18750000       0.06250000 </v>
   <v>       0.31250000       0.31250000       0.06250000 </v>
   <v>       0.43750000       0.31250000       0.06250000 </v>
   <v>      -0.43750000       0.31250000       0.06250000 </v>
   <v>      -0.31250000       0.31250000       0.06250000 </v>
   <v>      -0.18750000       0.31250000       0.06250000 </v>
   <v>      -0.06250000       0.31250000       0.06250000 </v>
   <v>       0.43750000       0.43750000       0.06250000 </v>
   <v>      -0.43750000       0.43750000       0.06250000 </v>
   <v>      -0.31250000       0.43750000       0.06250000 </v>
   <v>      -0.18750000       0.43750000       0.06250000 </v>
   <v>      -0.06250000       0.43750000       0.06250000 </v>
   <v>      -0.43750000      -0.43750000       0.06250000 </v>
   <v>      -0.31250000      -0.43750000       0.06250000 </v>
   <v>      -0.18750000      -0.43750000       0.06250000 </v>
   <v>      -0.31250000      -0.31250000       0.06250000 </v>
   <v>      -0.18750000      -0.31250000       0.06250000 </v>
   <v>      -0.18750000      -0.18750000       0.06250000 </v>
   <v>       0.18750000       0.18750000       0.18750000 </v>
   <v>       0.31250000       0.18750000       0.18750000 </v>
   <v>       0.43750000       0.18750000       0.18750000 </v>
   <v>      -0.43750000       0.18750000       0.18750000 </v>
   <v>      -0.31250000       0.18750000       0.18750000 </v>
   <v>      -0.18750000       0.18750000       0.18750000 </v>
   <v>       0.31250000       0.31250000       0.18750000 </v>
   <v>       0.43750000       0.31250000       0.18750000 </v>
   <v>      -0.43750000       0.31250000       0.18750000 </v>
   <v>      -0.31250000       0.31250000       0.18750000 </v>
   <v>      -0.18750000       0.31250000       0.18750000 </v>
   <v>       0.43750000       0.43750000       0.18750000 </v>
   <v>      -0.43750000       0.43750000       0.18750000 </v>
   <v>      -0.31250000       0.43750000       0.18750000 </v>
   <v>      -0.18750000       0.43750000       0.18750000 </v>
   <v>      -0.43750000      -0.43750000       0.18750000 </v>
   <v>      -0.31250000      -0.43750000       0.18750000 </v>
   <v>      -0.31250000      -0.31250000       0.18750000 </v>
   <v>       0.31250000       0.31250000       0.31250000 </v>
   <v>       0.43750000       0.31250000       0.31250000 </v>
   <v>      -0.43750000       0.31250000       0.31250000 </v>
   <v>      -0.31250000       0.31250000       0.31250000 </v>
   <v>       0.43750000       0.43750000       0.31250000 </v>
   <v>      -0.43750000       0.43750000       0.31250000 </v>
   <v>      -0.31250000       0.43750000       0.31250000 </v>
   <v>      -0.43750000      -0.43750000       0.31250000 </v>
   <v>       0.43750000       0.43750000       0.43750000 </v>
   <v>      -0.43750000       0.43750000       0.43750000 </v>
  </varray>
  <varray name="weights" >
   <v>       0.00390625 </v>
   <v>       0.01171875 </v>
   <v>       0.01171875 </v>
   <v>       0.01171875 </v>
   <v>       0.01171875 </v>
   <v>       0.01171875 </v>
   <v>       0.01171875 </v>
   <v>       0.01171875 </v>
   <v>       0.01171875 </v>
   <v>       0.02343750 </v>
   <v>       0.02343750 </v>
   <v>       0.02343750 </v>
   <v>       0.02343750 </v>
   <v>       0.02343750 </v>
   <v>       0.02343750 </v>
   <v>       0.01171875 </v>
   <v>       0.02343750 </v>
   <v>       0.02343750 </v>
   <v>       0.02343750 </v>
   <v>       0.02343750 </v>
   <v>       0.02343750 </v>
   <v>       0.01171875 </v>
   <v>       0.02343750 </v>
   <v>       0.02343750 </v>
   <v>       0.02343750 </v>
   <v>       0.02343750 </v>
   <v>       0.01171875 </v>
   <v>       0.02343750 </v>
   <v>       0.02343750 </v>
   <v>       0.01171875 </v>
   <v>       0.02343750 </v>
   <v>       0.01171875 </v>
   <v>       0.00390625 </v>
   <v>       0.01171875 </v>
   <v>       0.01171875 </v>
   <v>       0.01171875 </v>
   <v>       0.01171875 </v>
   <v>       0.01171875 </v>
   <v>       0.01171875 </v>
   <v>       0.02343750 </v>
   <v>       0.02343750 </v>
   <v>       0.02343750 </v>
   <v>       0.02343750 </v>
   <v>       0.01171875 </v>
   <v>       0.02343750 </v>
   <v>       0.02343750 </v>
   <v>       0.02343750 </v>
   <v>       0.01171875 </v>
   <v>       0.02343750 </v>
   <v>       0.01171875 </v>
   <v>       0.00390625 </v>
   <v>       0.01171875 </v>
   <v>       0.01171875 </v>
   <v>       0.01171875 </v>
   <v>       0.01171875 </v>
   <v>       0.02343750 </v>
   <v>       0.02343750 </v>
   <v>       0.01171875 </v>
   <v>       0.00390625 </v>
   <v>       0.01171875 </v>
  </varray>
 </kpoints>
 <parameters>
  <separator name="general" >
   <i type="string" name="SYSTEM">unknown system</i>
   <i type="logical" name="LCOMPAT"> F  </i>
  </separator>
  <separator name="electronic" >
   <i type="string" name="PREC">normal</i>
   <i name="ENMAX">    350.00000000</i>
   <i name="ENAUG">    412.49600000</i>
   <i name="EDIFF">      0.00010000</i>
   <i type="int" name="IALGO">    38</i>
   <i type="int" name="IWAVPR">    11</i>
   <i type="int" name="NBANDS">     9</i>
   <i name="NELECT">     11.00000000</i>
   <i type="int" name="TURBO">     0</i>
   <i type="int" name="IRESTART">     0</i>
   <i type="int" name="NREBOOT">     0</i>
   <i type="int" name="NMIN">     0</i>
   <i name="EREF">      0.00000000</i>
   <separator name="electronic smearing" >
    <i type="int" name="ISMEAR">     1</i>
    <i name="SIGMA">      0.20000000</i>
    <i name="KSPACING">      0.50000000</i>
    <i type="logical" name="KGAMMA"> T  </i>
   </separator>
   <separator name="electronic projectors" >
    <i type="logical" name="LREAL"> F  </i>
    <v name="ROPT">      0.00000000</v>
    <i type="int" name="LMAXPAW">  -100</i>
    <i type="int" name="LMAXMIX">     2</i>
    <i type="logical" name="NLSPLINE"> F  </i>
   </separator>
   <separator name="electronic startup" >
    <i type="int" name="ISTART">     0</i>
    <i type="int" name="ICHARG">     2</i>
    <i type="int" name="INIWAV">     1</i>
   </separator>
   <separator name="electronic spin" >
    <i type="int" name="ISPIN">     1</i>
    <i type="logical" name="LNONCOLLINEAR"> F  </i>
    <v name="MAGMOM">      1.00000000</v>
    <i name="NUPDOWN">     -1.00000000</i>
    <i type="logical" name="LSORBIT"> F  </i>
    <v name="SAXIS">      0.00000000      0.00000000      1.00000000</v>
    <i type="logical" name="LSPIRAL"> F  </i>
    <v name="QSPIRAL">      0.00000000      0.00000000      0.00000000</v>
    <i type="logical" name="LZEROZ"> F  </i>
   </separator>
   <separator name="electronic exchange-correlation" >
    <i type="logical" name="LASPH"> F  </i>
    <i type="logical" name="LMETAGGA"> F  </i>
   </separator>
   <separator name="electronic convergence" >
    <i type="int" name="NELM">    60</i>
    <i type="int" name="NELMDL">    -5</i>
    <i type="int" name="NELMIN">     2</i>
    <i name="ENINI">    350.00000000</i>
    <separator name="electronic convergence detail" >
     <i type="logical" name="LDIAG"> T  </i>
     <i type="logical" name="LSUBROT"> F  </i>
     <i name="WEIMIN">      0.00100000</i>
     <i name="EBREAK">      0.00000278</i>
     <i name="DEPER">      0.30000000</i>
     <i type="int" name="NRMM">     4</i>
     <i name="TIME">      0.40000000</i>
    </separator>
   </separator>
   <separator name="electronic mixer" >
    <i name="AMIX">      0.40000000</i>
    <i name="BMIX">      1.00000000</i>
    <i name="AMIN">      0.10000000</i>
    <i name="AMIX_MAG">      1.60000000</i>
    <i name="BMIX_MAG">      1.00000000</i>
    <separator name="electronic mixer details" >
     <i type="int" name="IMIX">     4</i>
     <i type="int" name="MAXMIX">   -45</i>
     <i name="WC">    100.00000000</i>
     <i type="int" name="INIMIX">     1</i>
     <i type="int" name="MIXPRE">     1</i>
     <i type="int" name="MREMOVE">     5</i>
    </separator>
   </separator>
   <separator name="electronic dipolcorrection" >
    <i type="logical" name="LDIPOL"> F  </i>
    <i type="logical" name="LMONO"> F  </i>
    <i type="int" name="IDIPOL">     0</i>
    <i name="EPSILON">      1.00000000</i>
    <v name="DIPOL">   -100.00000000   -100.00000000   -100.00000000</v>
    <i name="EFIELD">      0.00000000</i>
   </separator>
  </separator>
  <separator name="grids" >
   <i type="int" name="NGX">    14</i>
   <i type="int" name="NGY">    14</i>
   <i type="int" name="NGZ">    14</i>
   <i type="int" name="NGXF">    28</i>
   <i type="int" name="NGYF">    28</i>
   <i type="int" name="NGZF">    28</i>
   <i type="logical" name="ADDGRID"> F  </i>
  </separator>
  <separator name="ionic" >
   <i type="int" name="NSW">    30</i>
   <i type="int" name="IBRION">     2</i>
   <i type="int" name="ISIF">     2</i>
   <i name="PSTRESS">      0.00000000</i>
   <i name="EDIFFG">      0.00100000</i>
   <i type="int" name="NFREE">     1</i>
   <i name="POTIM">      0.50000000</i>
   <i name="SMASS">     -3.00000000</i>
   <i name="SCALEE">      1.00000000</i>
  </separator>
  <separator name="ionic md" >
   <i name="TEBEG">      0.00010000</i>
   <i name="TEEND">      0.00010000</i>
   <i type="int" name="NBLOCK">     1</i>
   <i type="int" name="KBLOCK">    30</i>
   <i type="int" name="NPACO">   256</i>
   <i name="APACO">     16.00000000</i>
  </separator>
  <separator name="symmetry" >
   <i type="int" name="ISYM">     2</i>
   <i name="SYMPREC">      0.00001000</i>
  </separator>
  <separator name="dos" >
   <i type="logical" name="LORBIT"> F  </i>
   <v name="RWIGS">     -1.00000000</v>
   <i type="int" name="NEDOS">   301</i>
   <i name="EMIN">     10.00000000</i>
   <i name="EMAX">    -10.00000000</i>
   <i name="EFERMI">      0.00000000</i>
  </separator>
  <separator name="writing" >
   <i type="int" name="NWRITE">     2</i>
   <i type="logical" name="LWAVE"> T  </i>
   <i type="logical" name="LCHARG"> T  </i>
   <i type="logical" name="LPARD"> F  </i>
   <i type="logical" name="LVTOT"> F  </i>
   <i type="logical" name="LVHAR"> F  </i>
   <i type="logical" name="LELF"> F  </i>
   <i type="logical" name="LOPTICS"> F  </i>
   <v name="STM">      0.00000000      0.00000000      0.00000000      0.00000000      0.00000000      0.00000000      0.00000000</v>
  </separator>
  <separator name="performance" >
   <i type="int" name="NPAR">     1</i>
   <i type="int" name="NSIM">     4</i>
   <i type="int" name="NBLK">    -1</i>
   <i type="logical" name="LPLANE"> T  </i>
   <i type="logical" name="LSCALAPACK"> F  </i>
   <i type="logical" name="LSCAAWARE"> F  </i>
   <i type="logical" name="LSCALU"> F  </i>
   <i type="logical" name="LASYNC"> F  </i>
   <i type="logical" name="LORBITALREAL"> F  </i>
  </separator>
  <separator name="miscellaneous" >
   <i type="int" name="IDIOT">     3</i>
   <i type="logical" name="LMUSIC"> F  </i>
   <v name="POMASS">    107.86800000</v>
   <v name="DARWINR">      0.00000000</v>
   <v name="DARWINV">      1.00000000</v>
   <i type="logical" name="LCORR"> T  </i>
  </separator>
  <i type="logical" name="GGA_COMPAT"> T  </i>
  <i type="logical" name="LBERRY"> F  </i>
  <i type="int" name="ICORELEVEL">     0</i>
  <i type="logical" name="LDAU"> F  </i>
  <i type="int" name="I_CONSTRAINED_M">     0</i>
  <separator name="electronic exchange-correlation" >
   <i type="string" name="GGA">--</i>
   <i type="int" name="VOSKOWN">     0</i>
   <i type="logical" name="LHFCALC"> F  </i>
   <i type="string" name="PRECFOCK"></i>
   <i type="logical" name="LSYMGRAD"> F  </i>
   <i type="logical" name="LHFONE"> F  </i>
   <i type="logical" name="LRHFCALC"> F  </i>
   <i type="logical" name="LTHOMAS"> F  </i>
   <i type="logical" name="LMODELHF"> F  </i>
   <i name="ENCUT4O">     -1.00000000</i>
   <i type="int" name="EXXOEP">     0</i>
   <i type="int" name="FOURORBIT">     0</i>
   <i name="AEXX">      0.00000000</i>
   <i name="HFALPHA">      0.00000000</i>
   <i name="MCALPHA">      0.00000000</i>
   <i name="ALDAX">      1.00000000</i>
   <i name="AGGAX">      1.00000000</i>
   <i name="ALDAC">      1.00000000</i>
   <i name="AGGAC">      1.00000000</i>
   <i type="int" name="NKREDX">     1</i>
   <i type="int" name="NKREDY">     1</i>
   <i type="int" name="NKREDZ">     1</i>
   <i type="logical" name="SHIFTRED"> F  </i>
   <i type="logical" name="ODDONLY"> F  </i>
   <i type="logical" name="EVENONLY"> F  </i>
   <i type="int" name="LMAXFOCK">     0</i>
   <i type="int" name="NMAXFOCKAE">     0</i>
   <i type="logical" name="LFOCKAEDFT"> F  </i>
   <i name="HFSCREEN">      0.00000000</i>
   <i name="HFSCREENC">      0.00000000</i>
   <i type="int" name="NBANDSGWLOW">     0</i>
  </separator>
  <separator name="vdW DFT" >
   <i type="logical" name="LUSE_VDW"> F  </i>
   <i name="Zab_VDW">     -0.84910000</i>
   <i name="PARAM1">      0.12340000</i>
   <i name="PARAM2">      1.00000000</i>
   <i name="PARAM3">      0.00000000</i>
  </separator>
  <separator name="model GW" >
   <i type="int" name="MODEL_GW">     0</i>
   <i name="MODEL_EPS0">      9.65916111</i>
   <i name="MODEL_ALPHA">      1.00000000</i>
  </separator>
  <separator name="linear response parameters" >
   <i type="logical" name="LEPSILON"> F  </i>
   <i type="logical" name="LRPA"> F  </i>
   <i type="logical" name="LNABLA"> F  </i>
   <i type="logical" name="LVEL"> F  </i>
   <i type="int" name="KINTER">     0</i>
   <i name="CSHIFT">      0.10000000</i>
   <i name="OMEGAMAX">     -1.00000000</i>
   <i name="DEG_THRESHOLD">      0.00200000</i>
  </separator>
  <separator name="orbital magnetization" >
   <i type="logical" name="NUCIND"> F  </i>
   <v name="MAGPOS">      0.00000000      0.00000000      0.00000000</v>
   <i type="logical" name="LNICSALL"> T  </i>
   <i type="logical" name="ORBITALMAG"> F  </i>
   <i type="logical" name="LMAGBLOCH"> F  </i>
   <i type="logical" name="LCHIMAG"> F  </i>
   <i type="logical" name="LGAUGE"> T  </i>
   <i type="int" name="MAGATOM">     0</i>
   <v name="MAGDIPOL">      0.00000000      0.00000000      0.00000000</v>
   <v name="AVECCONST">      0.00000000      0.00000000      0.00000000</v>
  </separator>
  <separator name="response functions" >
   <i type="logical" name="LADDER"> F  </i>
   <i type="logical" name="LFXC"> F  </i>
   <i type="logical" name="LHARTREE"> T  </i>
   <i type="int" name="IBSE">     0</i>
   <i type="logical" name="LTCTE"> F  </i>
   <i type="logical" name="LTETE"> F  </i>
   <i type="logical" name="LTRIPLET"> F  </i>
   <i type="logical" name="LFXCEPS"> F  </i>
   <i type="logical" name="LFXHEG"> F  </i>
   <i type="logical" name="L2ORDER"> F  </i>
   <i type="logical" name="LUSEW"> F  </i>
   <i name="ENCUTGW">     -2.00000000</i>
   <i name="ENCUTGWSOFT">     -2.00000000</i>
   <i name="ENCUTLF">     -1.00000000</i>
   <i type="int" name="LMAXMP2">    -1</i>
   <i name="SCISSOR">      0.00000000</i>
   <i type="int" name="NOMEGA">     0</i>
   <i type="int" name="NOMEGAR">     0</i>
   <i type="int" name="NBANDSGW">    -1</i>
   <i type="int" name="NBANDSO">    -1</i>
   <i type="int" name="NBANDSV">    -1</i>
   <i type="int" name="NELM">     1</i>
   <i type="int" name="DIM">     3</i>
   <i type="int" name="ANTIRES">     0</i>
   <i name="OMEGAMAX">    -30.00000000</i>
   <i name="OMEGAMIN">    -30.00000000</i>
   <i name="OMEGATL">   -200.00000000</i>
   <i type="int" name="OMEGAGRID">     0</i>
   <i name="CSHIFT">     -0.10000000</i>
   <i type="logical" name="SELFENERGY"> F  </i>
   <i type="logical" name="LSPECTRAL"> F  </i>
   <i type="logical" name="ODDONLYGW"> F  </i>
   <i type="logical" name="EVENONLYGW"> F  </i>
   <i type="int" name="NKREDLFX">     1</i>
   <i type="int" name="NKREDLFY">     1</i>
   <i type="int" name="NKREDLFZ">     1</i>
   <i type="int" name="MAXMEM">  1800</i>
   <i type="int" name="TELESCOPE">     0</i>
   <i type="int" name="TAUPAR">     1</i>
  </separator>
  <separator name="External order field" >
   <i name="OFIELD_KAPPA">      0.00000000</i>
   <v name="OFIELD_K">      0.00000000      0.00000000      0.00000000</v>
   <i name="OFIELD_Q6_NEAR">      0.00000000</i>
   <i name="OFIELD_Q6_FAR">      0.00000000</i>
   <i name="OFIELD_A">      0.00000000</i>
  </separator>
 </parameters>
 <atominfo>
  <atoms>       1 </atoms>
  <types>       1 </types>
  <array name="atoms" >
   <dimension dim="1">ion</dimension>
   <field type="string">element</field>
   <field type="int">atomtype</field>
   <set>
    <rc><c>Ag</c><c>   1</c></rc>
   </set>
  </array>
  <array name="atomtypes" >
   <dimension dim="1">type</dimension>
   <field type="int">atomspertype</field>
   <field type="string">element</field>
   <field>mass</field>
   <field>valence</field>
   <field type="string">pseudopotential</field>
   <set>
    <rc><c>   1</c><c>Ag</c><c>    107.86800000</c><c>     11.00000000</c><c>  PAW_PBE Ag 02Apr2005                  </c></rc>
   </set>
  </array>
 </atominfo>
 <structure name="initialpos" >
  <crystal>
   <varray name="basis" >
    <v>       2.83422540       0.00000000       0.00000000 </v>
    <v>       1.41711270       2.45451120       0.00000000 </v>
    <v>       1.41711270       0.81817040       2.31413535 </v>
   </varray>
   <i name="volume">     16.09860186 </i>
   <varray name="rec_basis" >
    <v>       0.35283009      -0.20370655      -0.14404228 </v>
    <v>       0.00000000       0.40741309      -0.14404228 </v>
    <v>       0.00000000       0.00000000       0.43212684 </v>
   </varray>
  </crystal>
  <varray name="positions" >
   <v>       0.00000000       0.00000000       0.00000000 </v>
  </varray>
 </structure>
 <calculation>
  <scstep>
   <time name="dav">    0.72    0.72</time>
   <time name="total">    0.76    0.76</time>
   <energy>
    <i name="alphaZ">     52.83552426 </i>
    <i name="ewald">   -996.52532355 </i>
    <i name="hartreedc">   -193.66722716 </i>
    <i name="XCdc">    -10.24281099 </i>
    <i name="pawpsdc">   1003.46214933 </i>
    <i name="pawaedc">   -957.34927423 </i>
    <i name="eentropy">     -0.00244658 </i>
    <i name="bandstr">     91.50153580 </i>
    <i name="atom">   1037.24027811 </i>
    <i name="e_fr_energy">     27.25240500 </i>
    <i name="e_wo_entrp">     27.25485157 </i>
    <i name="e_0_energy">     27.25322052 </i>
   </energy>
  </scstep>
  <scstep>
   <time name="dav">    0.72    0.72</time>
   <time name="total">    0.72    0.72</time>
   <energy>
    <i name="e_fr_energy">     -2.71782781 </i>
    <i name="e_wo_entrp">     -2.71933355 </i>
    <i name="e_0_energy">     -2.71832972 </i>
   </energy>
  </scstep>
  <scstep>
   <time name="dav">    0.77    0.77</time>
   <time name="total">    0.78    0.79</time>
   <energy>
    <i name="e_fr_energy">     -2.93210111 </i>
    <i name="e_wo_entrp">     -2.93367901 </i>
    <i name="e_0_energy">     -2.93262708 </i>
   </energy>
  </scstep>
  <scstep>
   <time name="dav">    0.78    0.78</time>
   <time name="total">    0.79    0.81</time>
   <energy>
    <i name="e_fr_energy">     -2.93250254 </i>
    <i name="e_wo_entrp">     -2.93408048 </i>
    <i name="e_0_energy">     -2.93302852 </i>
   </energy>
  </scstep>
  <scstep>
   <time name="dav">    0.81    0.81</time>
   <time name="total">    0.88    0.90</time>
   <energy>
    <i name="e_fr_energy">     -2.93250526 </i>
    <i name="e_wo_entrp">     -2.93408320 </i>
    <i name="e_0_energy">     -2.93303124 </i>
   </energy>
  </scstep>
  <scstep>
   <time name="dav">    0.66    0.66</time>
   <time name="total">    0.77    0.79</time>
   <energy>
    <i name="e_fr_energy">     -2.67458303 </i>
    <i name="e_wo_entrp">     -2.67449868 </i>
    <i name="e_0_energy">     -2.67455491 </i>
   </energy>
  </scstep>
  <scstep>
   <time name="dav">    0.69    0.69</time>
   <time name="total">    0.79    0.87</time>
   <energy>
    <i name="e_fr_energy">     -2.66299845 </i>
    <i name="e_wo_entrp">     -2.66282764 </i>
    <i name="e_0_energy">     -2.66294151 </i>
   </energy>
  </scstep>
  <scstep>
   <time name="dav">    0.63    0.63</time>
   <time name="total">    0.73    0.84</time>
   <energy>
    <i name="e_fr_energy">     -2.65936509 </i>
    <i name="e_wo_entrp">     -2.65918324 </i>
    <i name="e_0_energy">     -2.65930447 </i>
   </energy>
  </scstep>
  <scstep>
   <time name="dav">    0.42    0.42</time>
   <time name="total">    0.46    0.47</time>
   <energy>
    <i name="alphaZ">     52.83552426 </i>
    <i name="ewald">   -996.52532355 </i>
    <i name="hartreedc">   -180.55145974 </i>
    <i name="XCdc">    -10.71610643 </i>
    <i name="pawpsdc">   1143.55397644 </i>
    <i name="pawaedc">  -1100.53707454 </i>
    <i name="eentropy">     -0.00018122 </i>
    <i name="bandstr">     52.04099469 </i>
    <i name="atom">   1037.24027811 </i>
    <i name="e_fr_energy">     -2.65937198 </i>
    <i name="e_wo_entrp">     -2.65919076 </i>
    <i name="e_0_energy">     -2.65931157 </i>
   </energy>
  </scstep>
  <structure>
   <crystal>
    <varray name="basis" >
     <v>       2.83422540       0.00000000       0.00000000 </v>
     <v>       1.41711270       2.45451120       0.00000000 </v>
     <v>       1.41711270       0.81817040       2.31413535 </v>
    </varray>
    <i name="volume">     16.09860186 </i>
    <varray name="rec_basis" >
     <v>       0.35283009      -0.20370655      -0.14404228 </v>
     <v>       0.00000000       0.40741309      -0.14404228 </v>
     <v>       0.00000000       0.00000000       0.43212684 </v>
    </varray>
   </crystal>
   <varray name="positions" >
    <v>       0.00000000       0.00000000       0.00000000 </v>
   </varray>
  </structure>
  <varray name="forces" >
   <v>       0.00000000       0.00000000       0.00000000 </v>
  </varray>
  <varray name="stress" >
   <v>     111.72865164       0.00000000       0.00000000 </v>
   <v>       0.00000000     111.72865164       0.00000000 </v>
   <v>       0.00000000       0.00000000     111.72865164 </v>
  </varray>
  <energy>
   <i name="e_fr_energy">     -2.65937198 </i>
   <i name="e_wo_entrp">     -2.65931157 </i>
   <i name="e_0_energy">     -0.00018122 </i>
  </energy>
  <time name="totalsc">    7.22    7.62</time>
  <eigenvalues>
   <array>
    <dimension dim="1">band</dimension>
    <dimension dim="2">kpoint</dimension>
    <dimension dim="3">spin</dimension>
    <field>eigene</field>
    <field>occ</field>
    <set>
     <set comment="spin 1">
      <set comment="kpoint 1">
       <r>    1.1811    1.0000 </r>
       <r>    4.1978    1.0000 </r>
       <r>    4.2668    1.0000 </r>
       <r>    4.2668    1.0000 </r>
       <r>    5.3618    1.0000 </r>
       <r>    5.3618    1.0000 </r>
       <r>   25.4458    0.0000 </r>
       <r>   28.2892    0.0000 </r>
       <r>   29.3888    0.0000 </r>
      </set>
      <set comment="kpoint 2">
       <r>    1.8156    1.0000 </r>
       <r>    4.0471    1.0000 </r>
       <r>    4.4255    1.0000 </r>
       <r>    4.4536    1.0000 </r>
       <r>    5.2140    1.0000 </r>
       <r>    5.4574    1.0000 </r>
       <r>   24.7576    0.0000 </r>
       <r>   26.0931    0.0000 </r>
       <r>   28.6460    0.0000 </r>
      </set>
      <set comment="kpoint 3">
       <r>    2.6670    1.0000 </r>
       <r>    4.3415    1.0000 </r>
       <r>    4.4856    1.0000 </r>
       <r>    4.5954    1.0000 </r>
       <r>    5.4027    1.0000 </r>
       <r>    5.9347    1.0000 </r>
       <r>   20.1060    0.0000 </r>
       <r>   25.5191    0.0000 </r>
       <r>   28.1316    0.0000 </r>
      </set>
      <set comment="kpoint 4">
       <r>    2.6285    1.0000 </r>
       <r>    4.2350    1.0000 </r>
       <r>    4.3159    1.0000 </r>
       <r>    5.7729    1.0000 </r>
       <r>    5.9608    1.0000 </r>
       <r>    7.5340    1.0000 </r>
       <r>   15.4440    0.0000 </r>
       <r>   24.7910    0.0000 </r>
       <r>   26.9880    0.0000 </r>
      </set>
      <set comment="kpoint 5">
       <r>    2.5586    1.0000 </r>
       <r>    4.1560    1.0000 </r>
       <r>    4.2707    1.0000 </r>
       <r>    5.9486    1.0000 </r>
       <r>    6.2594    1.0000 </r>
       <r>    8.9821    1.0342 </r>
       <r>   13.3291    0.0000 </r>
       <r>   24.5977    0.0000 </r>
       <r>   27.1081    0.0000 </r>
      </set>
      <set comment="kpoint 6">
       <r>    2.6720    1.0000 </r>
       <r>    4.2737    1.0000 </r>
       <r>    4.3954    1.0000 </r>
       <r>    5.3094    1.0000 </r>
       <r>    6.0484    1.0000 </r>
       <r>    6.6855    1.0000 </r>
       <r>   16.9049    0.0000 </r>
       <r>   25.2016    0.0000 </r>
       <r>   27.3333    0.0000 </r>
      </set>
      <set comment="kpoint 7">
       <r>    2.4800    1.0000 </r>
       <r>    4.1235    1.0000 </r>
       <r>    4.4968    1.0000 </r>
       <r>    4.5232    1.0000 </r>
       <r>    5.3894    1.0000 </r>
       <r>    5.6071    1.0000 </r>
       <r>   21.7431    0.0000 </r>
       <r>   26.1079    0.0000 </r>
       <r>   28.0814    0.0000 </r>
      </set>
      <set comment="kpoint 8">
       <r>    1.5116    1.0000 </r>
       <r>    4.0761    1.0000 </r>
       <r>    4.3827    1.0000 </r>
       <r>    4.3855    1.0000 </r>
       <r>    5.2343    1.0000 </r>
       <r>    5.4305    1.0000 </r>
       <r>   25.4747    0.0000 </r>
       <r>   27.0826    0.0000 </r>
       <r>   28.6651    0.0000 </r>
      </set>
      <set comment="kpoint 9">
       <r>    2.1150    1.0000 </r>
       <r>    3.8367    1.0000 </r>
       <r>    4.5974    1.0000 </r>
       <r>    4.6160    1.0000 </r>
       <r>    5.0884    1.0000 </r>
       <r>    5.5592    1.0000 </r>
       <r>   25.0891    0.0000 </r>
       <r>   26.3040    0.0000 </r>
       <r>   27.2271    0.0000 </r>
      </set>
      <set comment="kpoint 10">
       <r>    2.9520    1.0000 </r>
       <r>    3.6532    1.0000 </r>
       <r>    4.4657    1.0000 </r>
       <r>    4.8984    1.0000 </r>
       <r>    5.4306    1.0000 </r>
       <r>    6.0438    1.0000 </r>
       <r>   22.1953    0.0000 </r>
       <r>   24.2134    0.0000 </r>
       <r>   26.9282    0.0000 </r>
      </set>
      <set comment="kpoint 11">
       <r>    3.0155    1.0000 </r>
       <r>    4.0634    1.0000 </r>
       <r>    4.4207    1.0000 </r>
       <r>    4.8142    1.0000 </r>
       <r>    6.0525    1.0000 </r>
       <r>    7.8557    1.0000 </r>
       <r>   17.3206    0.0000 </r>
       <r>   23.7105    0.0000 </r>
       <r>   24.9309    0.0000 </r>
      </set>
      <set comment="kpoint 12">
       <r>    2.9327    1.0000 </r>
       <r>    3.9079    1.0000 </r>
       <r>    4.6239    1.0000 </r>
       <r>    5.0600    1.0000 </r>
       <r>    6.2152    1.0000 </r>
       <r>   10.5080    0.0000 </r>
       <r>   13.4944    0.0000 </r>
       <r>   23.2168    0.0000 </r>
       <r>   24.2532    0.0000 </r>
      </set>
      <set comment="kpoint 13">
       <r>    3.0437    1.0000 </r>
       <r>    4.0053    1.0000 </r>
       <r>    4.6084    1.0000 </r>
       <r>    4.8814    1.0000 </r>
       <r>    5.8954    1.0000 </r>
       <r>    8.8483    1.0141 </r>
       <r>   15.8765    0.0000 </r>
       <r>   22.5317    0.0000 </r>
       <r>   25.4209    0.0000 </r>
      </set>
      <set comment="kpoint 14">
       <r>    3.1898    1.0000 </r>
       <r>    3.8563    1.0000 </r>
       <r>    4.3371    1.0000 </r>
       <r>    4.8695    1.0000 </r>
       <r>    5.2613    1.0000 </r>
       <r>    6.7278    1.0000 </r>
       <r>   20.5799    0.0000 </r>
       <r>   22.7390    0.0000 </r>
       <r>   27.2915    0.0000 </r>
      </set>
      <set comment="kpoint 15">
       <r>    2.3620    1.0000 </r>
       <r>    3.8863    1.0000 </r>
       <r>    4.5337    1.0000 </r>
       <r>    4.6120    1.0000 </r>
       <r>    5.1553    1.0000 </r>
       <r>    5.6649    1.0000 </r>
       <r>   23.5162    0.0000 </r>
       <r>   25.2777    0.0000 </r>
       <r>   28.1883    0.0000 </r>
      </set>
      <set comment="kpoint 16">
       <r>    3.0184    1.0000 </r>
       <r>    3.2294    1.0000 </r>
       <r>    5.1015    1.0000 </r>
       <r>    5.3255    1.0000 </r>
       <r>    5.9238    1.0000 </r>
       <r>    6.1116    1.0000 </r>
       <r>   22.5705    0.0000 </r>
       <r>   23.6854    0.0000 </r>
       <r>   24.2998    0.0000 </r>
      </set>
      <set comment="kpoint 17">
       <r>    2.9861    1.0000 </r>
       <r>    3.1507    1.0000 </r>
       <r>    5.0029    1.0000 </r>
       <r>    5.6455    1.0000 </r>
       <r>    6.1019    1.0000 </r>
       <r>    8.2320    1.0000 </r>
       <r>   19.7170    0.0000 </r>
       <r>   21.6529    0.0000 </r>
       <r>   21.7926    0.0000 </r>
      </set>
      <set comment="kpoint 18">
       <r>    3.0258    1.0000 </r>
       <r>    3.4959    1.0000 </r>
       <r>    4.7018    1.0000 </r>
       <r>    5.3697    1.0000 </r>
       <r>    6.2729    1.0000 </r>
       <r>   11.4518    0.0000 </r>
       <r>   15.3665    0.0000 </r>
       <r>   19.6327    0.0000 </r>
       <r>   22.0556    0.0000 </r>
      </set>
      <set comment="kpoint 19">
       <r>    3.3518    1.0000 </r>
       <r>    3.8540    1.0000 </r>
       <r>    4.2716    1.0000 </r>
       <r>    5.1785    1.0000 </r>
       <r>    5.9204    1.0000 </r>
       <r>   11.6251    0.0000 </r>
       <r>   15.5699    0.0000 </r>
       <r>   18.2688    0.0000 </r>
       <r>   23.6049    0.0000 </r>
      </set>
      <set comment="kpoint 20">
       <r>    3.4903    1.0000 </r>
       <r>    3.9029    1.0000 </r>
       <r>    4.1932    1.0000 </r>
       <r>    5.0265    1.0000 </r>
       <r>    5.5478    1.0000 </r>
       <r>    8.8110    1.0081 </r>
       <r>   17.9016    0.0000 </r>
       <r>   20.1802    0.0000 </r>
       <r>   25.4722    0.0000 </r>
      </set>
      <set comment="kpoint 21">
       <r>    2.8645    1.0000 </r>
       <r>    4.2811    1.0000 </r>
       <r>    4.5013    1.0000 </r>
       <r>    4.6461    1.0000 </r>
       <r>    5.7034    1.0000 </r>
       <r>    6.6361    1.0000 </r>
       <r>   18.6308    0.0000 </r>
       <r>   24.6745    0.0000 </r>
       <r>   26.8731    0.0000 </r>
      </set>
      <set comment="kpoint 22">
       <r>    2.6224    1.0000 </r>
       <r>    2.7467    1.0000 </r>
       <r>    6.0139    1.0000 </r>
       <r>    6.0516    1.0000 </r>
       <r>    6.3051    1.0000 </r>
       <r>    9.2285    0.4214 </r>
       <r>   18.8451    0.0000 </r>
       <r>   20.2413    0.0000 </r>
       <r>   21.0431    0.0000 </r>
      </set>
      <set comment="kpoint 23">
       <r>    2.6487    1.0000 </r>
       <r>    2.8192    1.0000 </r>
       <r>    5.7172    1.0000 </r>
       <r>    5.9990    1.0000 </r>
       <r>    6.4294    1.0000 </r>
       <r>   11.5858    0.0000 </r>
       <r>   16.8459    0.0000 </r>
       <r>   18.4091    0.0000 </r>
       <r>   20.2142    0.0000 </r>
      </set>
      <set comment="kpoint 24">
       <r>    2.9622    1.0000 </r>
       <r>    3.3861    1.0000 </r>
       <r>    4.8574    1.0000 </r>
       <r>    5.5550    1.0000 </r>
       <r>    6.2425    1.0000 </r>
       <r>   13.3785    0.0000 </r>
       <r>   14.9033    0.0000 </r>
       <r>   17.3139    0.0000 </r>
       <r>   21.6718    0.0000 </r>
      </set>
      <set comment="kpoint 25">
       <r>    3.1963    1.0000 </r>
       <r>    3.7729    1.0000 </r>
       <r>    4.6523    1.0000 </r>
       <r>    4.9131    1.0000 </r>
       <r>    6.0996    1.0000 </r>
       <r>   11.5756    0.0000 </r>
       <r>   13.7893    0.0000 </r>
       <r>   20.7546    0.0000 </r>
       <r>   23.7932    0.0000 </r>
      </set>
      <set comment="kpoint 26">
       <r>    2.7238    1.0000 </r>
       <r>    4.0916    1.0000 </r>
       <r>    4.4098    1.0000 </r>
       <r>    5.4625    1.0000 </r>
       <r>    6.1700    1.0000 </r>
       <r>    8.9157    1.0289 </r>
       <r>   14.2709    0.0000 </r>
       <r>   24.3228    0.0000 </r>
       <r>   25.8046    0.0000 </r>
      </set>
      <set comment="kpoint 27">
       <r>    2.4832    1.0000 </r>
       <r>    2.6380    1.0000 </r>
       <r>    6.1566    1.0000 </r>
       <r>    6.2935    1.0000 </r>
       <r>    6.4434    1.0000 </r>
       <r>   10.7734    0.0000 </r>
       <r>   16.8068    0.0000 </r>
       <r>   19.6693    0.0000 </r>
       <r>   20.4419    0.0000 </r>
      </set>
      <set comment="kpoint 28">
       <r>    2.7814    1.0000 </r>
       <r>    2.9289    1.0000 </r>
       <r>    5.4184    1.0000 </r>
       <r>    5.9307    1.0000 </r>
       <r>    6.2905    1.0000 </r>
       <r>    9.9729    0.0000 </r>
       <r>   18.6183    0.0000 </r>
       <r>   19.2405    0.0000 </r>
       <r>   20.7341    0.0000 </r>
      </set>
      <set comment="kpoint 29">
       <r>    3.0683    1.0000 </r>
       <r>    3.7381    1.0000 </r>
       <r>    4.5127    1.0000 </r>
       <r>    5.0897    1.0000 </r>
       <r>    6.2324    1.0000 </r>
       <r>    9.5105   -0.0275 </r>
       <r>   16.2068    0.0000 </r>
       <r>   22.3098    0.0000 </r>
       <r>   22.7905    0.0000 </r>
      </set>
      <set comment="kpoint 30">
       <r>    2.8493    1.0000 </r>
       <r>    2.9538    1.0000 </r>
       <r>    5.6267    1.0000 </r>
       <r>    5.7135    1.0000 </r>
       <r>    6.1188    1.0000 </r>
       <r>    7.4916    1.0000 </r>
       <r>   21.2296    0.0000 </r>
       <r>   21.6010    0.0000 </r>
       <r>   22.1660    0.0000 </r>
      </set>
      <set comment="kpoint 31">
       <r>    3.1512    1.0000 </r>
       <r>    3.4179    1.0000 </r>
       <r>    4.5899    1.0000 </r>
       <r>    5.2602    1.0000 </r>
       <r>    5.8325    1.0000 </r>
       <r>    6.8470    1.0000 </r>
       <r>   20.9040    0.0000 </r>
       <r>   22.9254    0.0000 </r>
       <r>   24.5194    0.0000 </r>
      </set>
      <set comment="kpoint 32">
       <r>    2.7763    1.0000 </r>
       <r>    3.5367    1.0000 </r>
       <r>    4.7365    1.0000 </r>
       <r>    4.9399    1.0000 </r>
       <r>    5.3202    1.0000 </r>
       <r>    5.7307    1.0000 </r>
       <r>   23.9424    0.0000 </r>
       <r>   25.4460    0.0000 </r>
       <r>   26.0267    0.0000 </r>
      </set>
      <set comment="kpoint 33">
       <r>    2.0633    1.0000 </r>
       <r>    4.1304    1.0000 </r>
       <r>    4.4449    1.0000 </r>
       <r>    4.4449    1.0000 </r>
       <r>    5.3646    1.0000 </r>
       <r>    5.3646    1.0000 </r>
       <r>   23.2538    0.0000 </r>
       <r>   26.3416    0.0000 </r>
       <r>   29.7492    0.0000 </r>
      </set>
      <set comment="kpoint 34">
       <r>    2.7780    1.0000 </r>
       <r>    3.9061    1.0000 </r>
       <r>    4.5144    1.0000 </r>
       <r>    4.6795    1.0000 </r>
       <r>    5.0762    1.0000 </r>
       <r>    6.0679    1.0000 </r>
       <r>   21.9846    0.0000 </r>
       <r>   24.0056    0.0000 </r>
       <r>   28.6675    0.0000 </r>
      </set>
      <set comment="kpoint 35">
       <r>    3.3662    1.0000 </r>
       <r>    3.9564    1.0000 </r>
       <r>    4.3962    1.0000 </r>
       <r>    4.8155    1.0000 </r>
       <r>    5.2644    1.0000 </r>
       <r>    7.6236    1.0000 </r>
       <r>   19.1498    0.0000 </r>
       <r>   21.3726    0.0000 </r>
       <r>   27.2247    0.0000 </r>
      </set>
      <set comment="kpoint 36">
       <r>    3.0993    1.0000 </r>
       <r>    3.9189    1.0000 </r>
       <r>    4.7008    1.0000 </r>
       <r>    4.8862    1.0000 </r>
       <r>    5.9334    1.0000 </r>
       <r>   10.0987    0.0000 </r>
       <r>   14.6777    0.0000 </r>
       <r>   21.5124    0.0000 </r>
       <r>   26.1614    0.0000 </r>
      </set>
      <set comment="kpoint 37">
       <r>    2.9700    1.0000 </r>
       <r>    3.8855    1.0000 </r>
       <r>    4.7669    1.0000 </r>
       <r>    4.7845    1.0000 </r>
       <r>    6.2924    1.0000 </r>
       <r>   10.0086    0.0000 </r>
       <r>   14.5619    0.0000 </r>
       <r>   22.6516    0.0000 </r>
       <r>   24.7359    0.0000 </r>
      </set>
      <set comment="kpoint 38">
       <r>    3.0372    1.0000 </r>
       <r>    3.7775    1.0000 </r>
       <r>    4.4776    1.0000 </r>
       <r>    4.9326    1.0000 </r>
       <r>    6.1213    1.0000 </r>
       <r>    7.1356    1.0000 </r>
       <r>   19.0086    0.0000 </r>
       <r>   24.4731    0.0000 </r>
       <r>   24.4995    0.0000 </r>
      </set>
      <set comment="kpoint 39">
       <r>    2.8816    1.0000 </r>
       <r>    4.0299    1.0000 </r>
       <r>    4.3877    1.0000 </r>
       <r>    4.6859    1.0000 </r>
       <r>    5.8779    1.0000 </r>
       <r>    5.9826    1.0000 </r>
       <r>   20.3223    0.0000 </r>
       <r>   25.7193    0.0000 </r>
       <r>   26.2134    0.0000 </r>
      </set>
      <set comment="kpoint 40">
       <r>    3.3449    1.0000 </r>
       <r>    3.7831    1.0000 </r>
       <r>    4.1452    1.0000 </r>
       <r>    5.1880    1.0000 </r>
       <r>    5.6410    1.0000 </r>
       <r>    7.7574    1.0000 </r>
       <r>   19.3109    0.0000 </r>
       <r>   21.5252    0.0000 </r>
       <r>   24.8705    0.0000 </r>
      </set>
      <set comment="kpoint 41">
       <r>    3.5759    1.0000 </r>
       <r>    3.6800    1.0000 </r>
       <r>    4.0653    1.0000 </r>
       <r>    5.2816    1.0000 </r>
       <r>    5.8977    1.0000 </r>
       <r>   10.3544    0.0000 </r>
       <r>   16.8401    0.0000 </r>
       <r>   19.2287    0.0000 </r>
       <r>   22.7933    0.0000 </r>
      </set>
      <set comment="kpoint 42">
       <r>    3.3315    1.0000 </r>
       <r>    3.6200    1.0000 </r>
       <r>    4.3711    1.0000 </r>
       <r>    5.1953    1.0000 </r>
       <r>    6.1971    1.0000 </r>
       <r>   12.4308    0.0000 </r>
       <r>   14.0880    0.0000 </r>
       <r>   20.2231    0.0000 </r>
       <r>   21.2024    0.0000 </r>
      </set>
      <set comment="kpoint 43">
       <r>    3.2427    1.0000 </r>
       <r>    3.4893    1.0000 </r>
       <r>    4.3805    1.0000 </r>
       <r>    5.5150    1.0000 </r>
       <r>    5.9682    1.0000 </r>
       <r>    9.2301    0.4147 </r>
       <r>   18.2106    0.0000 </r>
       <r>   20.4525    0.0000 </r>
       <r>   22.1597    0.0000 </r>
      </set>
      <set comment="kpoint 44">
       <r>    2.9672    1.0000 </r>
       <r>    3.4355    1.0000 </r>
       <r>    4.8391    1.0000 </r>
       <r>    5.2394    1.0000 </r>
       <r>    6.2885    1.0000 </r>
       <r>    8.7057    1.0011 </r>
       <r>   17.8520    0.0000 </r>
       <r>   21.9375    0.0000 </r>
       <r>   23.0971    0.0000 </r>
      </set>
      <set comment="kpoint 45">
       <r>    3.0713    1.0000 </r>
       <r>    3.2561    1.0000 </r>
       <r>    4.7110    1.0000 </r>
       <r>    5.6890    1.0000 </r>
       <r>    6.2401    1.0000 </r>
       <r>   11.0386    0.0000 </r>
       <r>   17.3546    0.0000 </r>
       <r>   19.2666    0.0000 </r>
       <r>   19.8905    0.0000 </r>
      </set>
      <set comment="kpoint 46">
       <r>    3.2255    1.0000 </r>
       <r>    3.6204    1.0000 </r>
       <r>    4.2372    1.0000 </r>
       <r>    5.4168    1.0000 </r>
       <r>    6.4234    1.0000 </r>
       <r>   14.1930    0.0000 </r>
       <r>   15.5649    0.0000 </r>
       <r>   17.3941    0.0000 </r>
       <r>   18.5521    0.0000 </r>
      </set>
      <set comment="kpoint 47">
       <r>    3.3832    1.0000 </r>
       <r>    3.6290    1.0000 </r>
       <r>    4.1330    1.0000 </r>
       <r>    5.4053    1.0000 </r>
       <r>    6.2172    1.0000 </r>
       <r>   12.2212    0.0000 </r>
       <r>   16.0241    0.0000 </r>
       <r>   18.5287    0.0000 </r>
       <r>   20.1401    0.0000 </r>
      </set>
      <set comment="kpoint 48">
       <r>    2.7357    1.0000 </r>
       <r>    3.0469    1.0000 </r>
       <r>    5.4350    1.0000 </r>
       <r>    5.8000    1.0000 </r>
       <r>    6.3168    1.0000 </r>
       <r>   12.2762    0.0000 </r>
       <r>   16.3820    0.0000 </r>
       <r>   17.1852    0.0000 </r>
       <r>   21.5879    0.0000 </r>
      </set>
      <set comment="kpoint 49">
       <r>    2.9402    1.0000 </r>
       <r>    3.1583    1.0000 </r>
       <r>    4.9626    1.0000 </r>
       <r>    5.6926    1.0000 </r>
       <r>    6.4248    1.0000 </r>
       <r>   12.8153    0.0000 </r>
       <r>   16.7131    0.0000 </r>
       <r>   17.3427    0.0000 </r>
       <r>   19.3516    0.0000 </r>
      </set>
      <set comment="kpoint 50">
       <r>    2.8333    1.0000 </r>
       <r>    3.1750    1.0000 </r>
       <r>    5.2081    1.0000 </r>
       <r>    5.5580    1.0000 </r>
       <r>    6.3482    1.0000 </r>
       <r>   10.5483    0.0000 </r>
       <r>   16.9520    0.0000 </r>
       <r>   19.2743    0.0000 </r>
       <r>   22.1036    0.0000 </r>
      </set>
      <set comment="kpoint 51">
       <r>    2.6184    1.0000 </r>
       <r>    4.3812    1.0000 </r>
       <r>    4.3812    1.0000 </r>
       <r>    5.3401    1.0000 </r>
       <r>    5.7506    1.0000 </r>
       <r>    5.7506    1.0000 </r>
       <r>   18.4026    0.0000 </r>
       <r>   25.5870    0.0000 </r>
       <r>   29.1416    0.0000 </r>
      </set>
      <set comment="kpoint 52">
       <r>    2.9208    1.0000 </r>
       <r>    4.1834    1.0000 </r>
       <r>    4.5248    1.0000 </r>
       <r>    4.9640    1.0000 </r>
       <r>    5.6282    1.0000 </r>
       <r>    7.5637    1.0000 </r>
       <r>   17.1491    0.0000 </r>
       <r>   23.5391    0.0000 </r>
       <r>   26.7219    0.0000 </r>
      </set>
      <set comment="kpoint 53">
       <r>    3.4348    1.0000 </r>
       <r>    3.9299    1.0000 </r>
       <r>    4.3393    1.0000 </r>
       <r>    4.9816    1.0000 </r>
       <r>    5.6614    1.0000 </r>
       <r>   10.0758    0.0000 </r>
       <r>   16.6593    0.0000 </r>
       <r>   19.0687    0.0000 </r>
       <r>   26.2936    0.0000 </r>
      </set>
      <set comment="kpoint 54">
       <r>    3.0961    1.0000 </r>
       <r>    3.6938    1.0000 </r>
       <r>    4.5988    1.0000 </r>
       <r>    5.3387    1.0000 </r>
       <r>    6.0401    1.0000 </r>
       <r>   13.0966    0.0000 </r>
       <r>   14.4095    0.0000 </r>
       <r>   17.6467    0.0000 </r>
       <r>   23.6351    0.0000 </r>
      </set>
      <set comment="kpoint 55">
       <r>    2.8069    1.0000 </r>
       <r>    4.0970    1.0000 </r>
       <r>    4.5297    1.0000 </r>
       <r>    5.0104    1.0000 </r>
       <r>    6.2410    1.0000 </r>
       <r>    8.2061    1.0000 </r>
       <r>   15.6159    0.0000 </r>
       <r>   24.5912    0.0000 </r>
       <r>   25.8521    0.0000 </r>
      </set>
      <set comment="kpoint 56">
       <r>    3.2116    1.0000 </r>
       <r>    3.7688    1.0000 </r>
       <r>    4.5339    1.0000 </r>
       <r>    4.9697    1.0000 </r>
       <r>    6.1109    1.0000 </r>
       <r>   10.5028    0.0000 </r>
       <r>   14.8295    0.0000 </r>
       <r>   21.7174    0.0000 </r>
       <r>   22.9394    0.0000 </r>
      </set>
      <set comment="kpoint 57">
       <r>    3.2875    1.0000 </r>
       <r>    3.6866    1.0000 </r>
       <r>    4.2533    1.0000 </r>
       <r>    5.3445    1.0000 </r>
       <r>    6.2160    1.0000 </r>
       <r>   13.4753    0.0000 </r>
       <r>   14.7074    0.0000 </r>
       <r>   17.7688    0.0000 </r>
       <r>   20.9112    0.0000 </r>
      </set>
      <set comment="kpoint 58">
       <r>    3.0784    1.0000 </r>
       <r>    3.7340    1.0000 </r>
       <r>    4.6534    1.0000 </r>
       <r>    5.0678    1.0000 </r>
       <r>    6.2019    1.0000 </r>
       <r>   11.9934    0.0000 </r>
       <r>   13.8444    0.0000 </r>
       <r>   20.0613    0.0000 </r>
       <r>   23.9987    0.0000 </r>
      </set>
      <set comment="kpoint 59">
       <r>    2.5083    1.0000 </r>
       <r>    4.2279    1.0000 </r>
       <r>    4.2279    1.0000 </r>
       <r>    6.1869    1.0000 </r>
       <r>    6.1869    1.0000 </r>
       <r>    7.9623    1.0000 </r>
       <r>   14.1252    0.0000 </r>
       <r>   24.7544    0.0000 </r>
       <r>   27.9165    0.0000 </r>
      </set>
      <set comment="kpoint 60">
       <r>    2.7666    1.0000 </r>
       <r>    4.0343    1.0000 </r>
       <r>    4.4367    1.0000 </r>
       <r>    5.4546    1.0000 </r>
       <r>    6.1647    1.0000 </r>
       <r>    9.8514    0.0000 </r>
       <r>   13.4149    0.0000 </r>
       <r>   23.7249    0.0000 </r>
       <r>   26.0236    0.0000 </r>
      </set>
     </set>
    </set>
   </array>
  </eigenvalues>
  <separator name="orbital magnetization" >
   <v name="MAGDIPOLOUT">      0.00000000      0.00000000      0.00000000</v>
  </separator>
  <dos>
   <i name="efermi">      9.20985868 </i>
   <total>
    <array>
     <dimension dim="1">gridpoints</dimension>
     <dimension dim="2">spin</dimension>
     <field>energy</field>
     <field>total</field>
     <field>integrated</field>
     <set>
      <set comment="spin 1">
       <r>    -0.8189     0.0000     0.0000 </r>
       <r>    -0.7103     0.0000     0.0000 </r>
       <r>    -0.6018     0.0000     0.0000 </r>
       <r>    -0.4932     0.0000     0.0000 </r>
       <r>    -0.3846     0.0000     0.0000 </r>
       <r>    -0.2761     0.0000     0.0000 </r>
       <r>    -0.1675     0.0000     0.0000 </r>
       <r>    -0.0590     0.0000     0.0000 </r>
       <r>     0.0496     0.0000     0.0000 </r>
       <r>     0.1582     0.0000     0.0000 </r>
       <r>     0.2667     0.0000     0.0000 </r>
       <r>     0.3753     0.0000     0.0000 </r>
       <r>     0.4838     0.0000     0.0000 </r>
       <r>     0.5924     0.0000     0.0000 </r>
       <r>     0.7010    -0.0001     0.0000 </r>
       <r>     0.8095    -0.0008    -0.0001 </r>
       <r>     0.9181    -0.0016    -0.0003 </r>
       <r>     1.0266     0.0034     0.0001 </r>
       <r>     1.1352     0.0190     0.0022 </r>
       <r>     1.2438     0.0268     0.0051 </r>
       <r>     1.3523     0.0273     0.0080 </r>
       <r>     1.4609     0.0602     0.0146 </r>
       <r>     1.5694     0.0891     0.0242 </r>
       <r>     1.6780     0.0722     0.0321 </r>
       <r>     1.7866     0.0742     0.0401 </r>
       <r>     1.8951     0.0869     0.0496 </r>
       <r>     2.0037     0.0843     0.0587 </r>
       <r>     2.1122     0.1017     0.0698 </r>
       <r>     2.2208     0.1102     0.0817 </r>
       <r>     2.3294     0.1556     0.0986 </r>
       <r>     2.4379     0.3001     0.1312 </r>
       <r>     2.5465     0.5821     0.1944 </r>
       <r>     2.6550     1.0949     0.3133 </r>
       <r>     2.7636     1.7251     0.5005 </r>
       <r>     2.8722     2.3716     0.7580 </r>
       <r>     2.9807     3.0095     1.0847 </r>
       <r>     3.0893     3.2593     1.4385 </r>
       <r>     3.1978     3.0349     1.7680 </r>
       <r>     3.3064     2.6679     2.0576 </r>
       <r>     3.4150     2.2767     2.3048 </r>
       <r>     3.5235     1.9572     2.5173 </r>
       <r>     3.6321     1.9601     2.7301 </r>
       <r>     3.7406     2.2268     2.9718 </r>
       <r>     3.8492     2.3644     3.2285 </r>
       <r>     3.9578     2.2653     3.4744 </r>
       <r>     4.0663     2.2064     3.7139 </r>
       <r>     4.1749     2.3907     3.9735 </r>
       <r>     4.2835     2.7671     4.2739 </r>
       <r>     4.3920     3.2940     4.6315 </r>
       <r>     4.5006     3.7058     5.0338 </r>
       <r>     4.6091     3.6160     5.4263 </r>
       <r>     4.7177     2.9607     5.7477 </r>
       <r>     4.8263     2.3930     6.0075 </r>
       <r>     4.9348     2.4255     6.2708 </r>
       <r>     5.0434     2.4950     6.5417 </r>
       <r>     5.1519     2.3967     6.8019 </r>
       <r>     5.2605     2.5872     7.0828 </r>
       <r>     5.3691     2.9281     7.4006 </r>
       <r>     5.4776     2.8913     7.7145 </r>
       <r>     5.5862     2.5943     7.9962 </r>
       <r>     5.6947     2.4044     8.2572 </r>
       <r>     5.8033     2.1537     8.4910 </r>
       <r>     5.9119     2.1984     8.7296 </r>
       <r>     6.0204     2.7643     9.0297 </r>
       <r>     6.1290     3.3728     9.3959 </r>
       <r>     6.2375     3.6145     9.7883 </r>
       <r>     6.3461     2.9273    10.1061 </r>
       <r>     6.4547     1.5884    10.2785 </r>
       <r>     6.5632     0.6351    10.3475 </r>
       <r>     6.6718     0.4061    10.3915 </r>
       <r>     6.7803     0.4539    10.4408 </r>
       <r>     6.8889     0.3461    10.4784 </r>
       <r>     6.9975     0.1523    10.4949 </r>
       <r>     7.1060     0.0740    10.5030 </r>
       <r>     7.2146     0.0642    10.5099 </r>
       <r>     7.3231     0.0349    10.5137 </r>
       <r>     7.4317     0.1021    10.5248 </r>
       <r>     7.5403     0.2825    10.5555 </r>
       <r>     7.6488     0.3836    10.5971 </r>
       <r>     7.7574     0.3914    10.6396 </r>
       <r>     7.8659     0.3623    10.6789 </r>
       <r>     7.9745     0.2241    10.7033 </r>
       <r>     8.0831     0.1169    10.7160 </r>
       <r>     8.1916     0.2051    10.7382 </r>
       <r>     8.3002     0.2669    10.7672 </r>
       <r>     8.4087     0.1277    10.7810 </r>
       <r>     8.5173    -0.0088    10.7801 </r>
       <r>     8.6259     0.0195    10.7822 </r>
       <r>     8.7344     0.2392    10.8082 </r>
       <r>     8.8430     0.5327    10.8660 </r>
       <r>     8.9515     0.5768    10.9286 </r>
       <r>     9.0601     0.3426    10.9658 </r>
       <r>     9.1687     0.2200    10.9897 </r>
       <r>     9.2772     0.2577    11.0177 </r>
       <r>     9.3858     0.2196    11.0415 </r>
       <r>     9.4943     0.1820    11.0613 </r>
       <r>     9.6029     0.1542    11.0780 </r>
       <r>     9.7115     0.0677    11.0854 </r>
       <r>     9.8200     0.0858    11.0947 </r>
       <r>     9.9286     0.2763    11.1247 </r>
       <r>    10.0372     0.4389    11.1723 </r>
       <r>    10.1457     0.3569    11.2111 </r>
       <r>    10.2543     0.1835    11.2310 </r>
       <r>    10.3628     0.2382    11.2568 </r>
       <r>    10.4714     0.4676    11.3076 </r>
       <r>    10.5800     0.5155    11.3636 </r>
       <r>    10.6885     0.2918    11.3952 </r>
       <r>    10.7971     0.1062    11.4068 </r>
       <r>    10.9056     0.0883    11.4164 </r>
       <r>    11.0142     0.1574    11.4335 </r>
       <r>    11.1228     0.1686    11.4518 </r>
       <r>    11.2313     0.0618    11.4585 </r>
       <r>    11.3399     0.0334    11.4621 </r>
       <r>    11.4484     0.2454    11.4887 </r>
       <r>    11.5570     0.5700    11.5506 </r>
       <r>    11.6656     0.6152    11.6174 </r>
       <r>    11.7741     0.2940    11.6493 </r>
       <r>    11.8827     0.0441    11.6541 </r>
       <r>    11.9912     0.0421    11.6587 </r>
       <r>    12.0998     0.1211    11.6718 </r>
       <r>    12.2084     0.2349    11.6973 </r>
       <r>    12.3169     0.3250    11.7326 </r>
       <r>    12.4255     0.2974    11.7649 </r>
       <r>    12.5340     0.1747    11.7839 </r>
       <r>    12.6426     0.0634    11.7908 </r>
       <r>    12.7512     0.0963    11.8012 </r>
       <r>    12.8597     0.1766    11.8204 </r>
       <r>    12.9683     0.1410    11.8357 </r>
       <r>    13.0768     0.0775    11.8441 </r>
       <r>    13.1854     0.0778    11.8526 </r>
       <r>    13.2940     0.2207    11.8765 </r>
       <r>    13.4025     0.5275    11.9338 </r>
       <r>    13.5111     0.6370    12.0029 </r>
       <r>    13.6196     0.3798    12.0442 </r>
       <r>    13.7282     0.1904    12.0648 </r>
       <r>    13.8368     0.2262    12.0894 </r>
       <r>    13.9453     0.2139    12.1126 </r>
       <r>    14.0539     0.2345    12.1381 </r>
       <r>    14.1624     0.4046    12.1820 </r>
       <r>    14.2710     0.4751    12.2336 </r>
       <r>    14.3796     0.3329    12.2697 </r>
       <r>    14.4881     0.1838    12.2896 </r>
       <r>    14.5967     0.2085    12.3123 </r>
       <r>    14.7052     0.3678    12.3522 </r>
       <r>    14.8138     0.4886    12.4053 </r>
       <r>    14.9224     0.4334    12.4523 </r>
       <r>    15.0309     0.2103    12.4751 </r>
       <r>    15.1395     0.0166    12.4769 </r>
       <r>    15.2480     0.0150    12.4786 </r>
       <r>    15.3566     0.1832    12.4985 </r>
       <r>    15.4652     0.4086    12.5428 </r>
       <r>    15.5737     0.5490    12.6024 </r>
       <r>    15.6823     0.4381    12.6500 </r>
       <r>    15.7909     0.2224    12.6741 </r>
       <r>    15.8994     0.2084    12.6968 </r>
       <r>    16.0080     0.2854    12.7277 </r>
       <r>    16.1165     0.2882    12.7590 </r>
       <r>    16.2251     0.2577    12.7870 </r>
       <r>    16.3337     0.2015    12.8089 </r>
       <r>    16.4422     0.1078    12.8206 </r>
       <r>    16.5508     0.0658    12.8277 </r>
       <r>    16.6593     0.2207    12.8517 </r>
       <r>    16.7679     0.5435    12.9107 </r>
       <r>    16.8765     0.7198    12.9888 </r>
       <r>    16.9850     0.5123    13.0444 </r>
       <r>    17.0936     0.2265    13.0690 </r>
       <r>    17.2021     0.3417    13.1061 </r>
       <r>    17.3107     0.7963    13.1926 </r>
       <r>    17.4193     0.9231    13.2928 </r>
       <r>    17.5278     0.4808    13.3450 </r>
       <r>    17.6364     0.1515    13.3614 </r>
       <r>    17.7449     0.2442    13.3879 </r>
       <r>    17.8535     0.4046    13.4319 </r>
       <r>    17.9621     0.3367    13.4684 </r>
       <r>    18.0706     0.1624    13.4860 </r>
       <r>    18.1792     0.2018    13.5079 </r>
       <r>    18.2877     0.3779    13.5490 </r>
       <r>    18.3963     0.4752    13.6006 </r>
       <r>    18.5049     0.6253    13.6684 </r>
       <r>    18.6134     0.7562    13.7505 </r>
       <r>    18.7220     0.5513    13.8104 </r>
       <r>    18.8305     0.2137    13.8336 </r>
       <r>    18.9391     0.0992    13.8443 </r>
       <r>    19.0477     0.2022    13.8663 </r>
       <r>    19.1562     0.5298    13.9238 </r>
       <r>    19.2648     0.9547    14.0275 </r>
       <r>    19.3733     0.9191    14.1272 </r>
       <r>    19.4819     0.4316    14.1741 </r>
       <r>    19.5905     0.2355    14.1997 </r>
       <r>    19.6990     0.3925    14.2423 </r>
       <r>    19.8076     0.4027    14.2860 </r>
       <r>    19.9161     0.2662    14.3149 </r>
       <r>    20.0247     0.3167    14.3493 </r>
       <r>    20.1333     0.6859    14.4237 </r>
       <r>    20.2418     0.9607    14.5280 </r>
       <r>    20.3504     0.7610    14.6106 </r>
       <r>    20.4589     0.4724    14.6619 </r>
       <r>    20.5675     0.3859    14.7038 </r>
       <r>    20.6761     0.4162    14.7490 </r>
       <r>    20.7846     0.5187    14.8053 </r>
       <r>    20.8932     0.5691    14.8671 </r>
       <r>    21.0017     0.4602    14.9170 </r>
       <r>    21.1103     0.3155    14.9513 </r>
       <r>    21.2189     0.2915    14.9829 </r>
       <r>    21.3274     0.2700    15.0122 </r>
       <r>    21.4360     0.2810    15.0427 </r>
       <r>    21.5446     0.5448    15.1019 </r>
       <r>    21.6531     0.9000    15.1996 </r>
       <r>    21.7617     0.9211    15.2996 </r>
       <r>    21.8702     0.5900    15.3636 </r>
       <r>    21.9788     0.4063    15.4077 </r>
       <r>    22.0874     0.5852    15.4713 </r>
       <r>    22.1959     0.7518    15.5529 </r>
       <r>    22.3045     0.5861    15.6165 </r>
       <r>    22.4130     0.3036    15.6495 </r>
       <r>    22.5216     0.2512    15.6767 </r>
       <r>    22.6302     0.4038    15.7206 </r>
       <r>    22.7387     0.6156    15.7874 </r>
       <r>    22.8473     0.7536    15.8692 </r>
       <r>    22.9558     0.6525    15.9401 </r>
       <r>    23.0644     0.4122    15.9848 </r>
       <r>    23.1730     0.2757    16.0147 </r>
       <r>    23.2815     0.2148    16.0380 </r>
       <r>    23.3901     0.1504    16.0544 </r>
       <r>    23.4986     0.2978    16.0867 </r>
       <r>    23.6072     0.6419    16.1564 </r>
       <r>    23.7158     0.8120    16.2445 </r>
       <r>    23.8243     0.6468    16.3148 </r>
       <r>    23.9329     0.3915    16.3573 </r>
       <r>    24.0414     0.2752    16.3871 </r>
       <r>    24.1500     0.3268    16.4226 </r>
       <r>    24.2586     0.5276    16.4799 </r>
       <r>    24.3671     0.6162    16.5468 </r>
       <r>    24.4757     0.5733    16.6090 </r>
       <r>    24.5842     0.6213    16.6765 </r>
       <r>    24.6928     0.6800    16.7503 </r>
       <r>    24.8014     0.6714    16.8232 </r>
       <r>    24.9099     0.5767    16.8858 </r>
       <r>    25.0185     0.3786    16.9269 </r>
       <r>    25.1270     0.2263    16.9515 </r>
       <r>    25.2356     0.2610    16.9798 </r>
       <r>    25.3442     0.4583    17.0295 </r>
       <r>    25.4527     0.6900    17.1045 </r>
       <r>    25.5613     0.6423    17.1742 </r>
       <r>    25.6698     0.3669    17.2140 </r>
       <r>    25.7784     0.2833    17.2448 </r>
       <r>    25.8870     0.3264    17.2802 </r>
       <r>    25.9955     0.3571    17.3190 </r>
       <r>    26.1041     0.4579    17.3687 </r>
       <r>    26.2126     0.5115    17.4242 </r>
       <r>    26.3212     0.4083    17.4685 </r>
       <r>    26.4298     0.1993    17.4902 </r>
       <r>    26.5383     0.0284    17.4932 </r>
       <r>    26.6469     0.0116    17.4945 </r>
       <r>    26.7554     0.1367    17.5093 </r>
       <r>    26.8640     0.3465    17.5470 </r>
       <r>    26.9726     0.4872    17.5999 </r>
       <r>    27.0811     0.4622    17.6500 </r>
       <r>    27.1897     0.4529    17.6992 </r>
       <r>    27.2983     0.4880    17.7522 </r>
       <r>    27.4068     0.3452    17.7896 </r>
       <r>    27.5154     0.0989    17.8004 </r>
       <r>    27.6239    -0.0163    17.7986 </r>
       <r>    27.7325    -0.0198    17.7965 </r>
       <r>    27.8411    -0.0027    17.7962 </r>
       <r>    27.9496     0.0450    17.8011 </r>
       <r>    28.0582     0.1861    17.8213 </r>
       <r>    28.1667     0.3493    17.8592 </r>
       <r>    28.2753     0.3128    17.8931 </r>
       <r>    28.3839     0.1128    17.9054 </r>
       <r>    28.4924     0.0275    17.9084 </r>
       <r>    28.6010     0.1569    17.9254 </r>
       <r>    28.7095     0.2797    17.9558 </r>
       <r>    28.8181     0.1816    17.9755 </r>
       <r>    28.9267     0.0292    17.9787 </r>
       <r>    29.0352    -0.0048    17.9781 </r>
       <r>    29.1438     0.0206    17.9804 </r>
       <r>    29.2523     0.0328    17.9839 </r>
       <r>    29.3609     0.0332    17.9875 </r>
       <r>    29.4695     0.0285    17.9906 </r>
       <r>    29.5780     0.0157    17.9923 </r>
       <r>    29.6866     0.0185    17.9944 </r>
       <r>    29.7951     0.0301    17.9976 </r>
       <r>    29.9037     0.0207    17.9999 </r>
       <r>    30.0123     0.0037    18.0003 </r>
       <r>    30.1208    -0.0016    18.0001 </r>
       <r>    30.2294    -0.0008    18.0000 </r>
       <r>    30.3379    -0.0001    18.0000 </r>
       <r>    30.4465     0.0000    18.0000 </r>
       <r>    30.5551     0.0000    18.0000 </r>
       <r>    30.6636     0.0000    18.0000 </r>
       <r>    30.7722     0.0000    18.0000 </r>
       <r>    30.8807     0.0000    18.0000 </r>
       <r>    30.9893     0.0000    18.0000 </r>
       <r>    31.0979     0.0000    18.0000 </r>
       <r>    31.2064     0.0000    18.0000 </r>
       <r>    31.3150     0.0000    18.0000 </r>
       <r>    31.4235     0.0000    18.0000 </r>
       <r>    31.5321     0.0000    18.0000 </r>
       <r>    31.6407     0.0000    18.0000 </r>
       <r>    31.7492     0.0000    18.0000 </r>
      </set>
     </set>
    </array>
   </total>
  </dos>
 </calculation>
 <structure name="finalpos" >
  <crystal>
   <varray name="basis" >
    <v>       2.83422540       0.00000000       0.00000000 </v>
    <v>       1.41711270       2.45451120       0.00000000 </v>
    <v>       1.41711270       0.81817040       2.31413535 </v>
   </varray>
   <i name="volume">     16.09860186 </i>
   <varray name="rec_basis" >
    <v>       0.35283009      -0.20370655      -0.14404228 </v>
    <v>       0.00000000       0.40741309      -0.14404228 </v>
    <v>       0.00000000       0.00000000       0.43212684 </v>
   </varray>
  </crystal>
  <varray name="positions" >
   <v>       0.00000000       0.00000000       0.00000000 </v>
  </varray>
 </structure>
</modeling>
