unknown system                          
           1
     2.834225    0.000000    0.000000
     1.417113    2.454511    0.000000
     1.417113    0.818170    2.314135
   Ag
   1
Direct configuration=     1
   0.00000000  0.00000000  0.00000000
