    3    3   10    1
  0.1706667E+03  0.8000000E-09  0.8000000E-09  0.8000000E-09  0.5000000E-15
  1.000000000000000E-004
  CAR 
 unknown system                          
      8      1      8
 
  0.0000000E+00  0.0000000E+00  0.0000000E+00  0.1000000E+01
    1      -25.286050
    2      -12.955475
    3       -9.170888
    4       -7.075968
    5       -1.070466
    6        1.066360
    7        1.232666
    8        1.722009
