 vasp.5.3.5 31Mar14 (build Jan 09 2015 16:57:47) complex                        
  
 POSCAR found :  2 types and       3 ions
 LDA part: xc-table for Pade appr. of Perdew
 POSCAR found :  2 types and       3 ions
 POSCAR, INCAR and KPOINTS ok, starting setup
 WARNING: small aliasing (wrap around) errors must be expected
 FFT: planning ...
 WAVECAR not read
 entering main loop
       N       E                     dE             d eps       ncg     rms          rms(c)
DAV:   1     0.550448694923E+02    0.55045E+02   -0.16235E+03    16   0.337E+02
DAV:   2    -0.498275015107E+01   -0.60028E+02   -0.60028E+02    24   0.103E+02
DAV:   3    -0.150139790823E+02   -0.10031E+02   -0.10031E+02    16   0.661E+01
DAV:   4    -0.152029984829E+02   -0.18902E+00   -0.18902E+00    24   0.100E+01
DAV:   5    -0.152032767687E+02   -0.27829E-03   -0.27829E-03    24   0.347E-01    0.660E+00
DAV:   6    -0.138886577238E+02    0.13146E+01   -0.64665E+00    16   0.158E+01    0.345E+00
DAV:   7    -0.137770346096E+02    0.11162E+00   -0.10476E-01    24   0.303E+00    0.202E+00
DAV:   8    -0.137098785897E+02    0.67156E-01   -0.86376E-02    24   0.281E+00    0.214E-01
DAV:   9    -0.137147258141E+02   -0.48472E-02   -0.31719E-03    24   0.415E-01    0.122E-01
DAV:  10    -0.137243061190E+02   -0.95803E-02   -0.42510E-03    16   0.515E-01    0.642E-02
DAV:  11    -0.137288252084E+02   -0.45191E-02   -0.17105E-03    16   0.265E-01    0.373E-02
DAV:  12    -0.137314186039E+02   -0.25934E-02   -0.57640E-04    16   0.151E-01    0.171E-02
DAV:  13    -0.137328038152E+02   -0.13852E-02   -0.28716E-04    32   0.814E-02    0.154E-02
DAV:  14    -0.137330996887E+02   -0.29587E-03   -0.48423E-05    24   0.421E-02    0.344E-03
DAV:  15    -0.137332974671E+02   -0.19778E-03   -0.21500E-05    24   0.275E-02    0.309E-03
DAV:  16    -0.137333137438E+02   -0.16277E-04   -0.15043E-06    24   0.863E-03
   1 F= -.13733314E+02 E0= -.13737179E+02  d E =-.137333E+02
 BRION: g(F)=  0.165E+01 g(S)=  0.000E+00
 bond charge predicted
       N       E                     dE             d eps       ncg     rms          rms(c)
DAV:   1    -0.132325526811E+02    0.50074E+00   -0.15042E+02    16   0.123E+02    0.421E+00
DAV:   2    -0.131250673241E+02    0.10749E+00   -0.32326E+00    24   0.157E+01    0.232E+00
DAV:   3    -0.130576294651E+02    0.67438E-01   -0.10886E+00    16   0.789E+00    0.111E+00
DAV:   4    -0.130362265575E+02    0.21403E-01   -0.16174E-01    24   0.305E+00    0.453E-01
DAV:   5    -0.130415028585E+02   -0.52763E-02   -0.10230E-02    16   0.103E+00    0.530E-02
DAV:   6    -0.130424273350E+02   -0.92448E-03   -0.86994E-04    16   0.266E-01    0.235E-02
DAV:   7    -0.130429562640E+02   -0.52893E-03   -0.99583E-05    24   0.756E-02    0.125E-02
DAV:   8    -0.130434966474E+02   -0.54038E-03   -0.14000E-04    16   0.777E-02    0.138E-02
DAV:   9    -0.130436879647E+02   -0.19132E-03   -0.48733E-05    16   0.460E-02    0.395E-03
DAV:  10    -0.130437773214E+02   -0.89357E-04   -0.89877E-06    16   0.151E-02
   2 F= -.13043777E+02 E0= -.13047643E+02  d E =0.689536E+00
 BRION: g(F)=  0.157E+02 g(S)=  0.000E+00 retain N=  1 mean eig= 0.24
 eig:   0.242
 bond charge predicted
       N       E                     dE             d eps       ncg     rms          rms(c)
DAV:   1    -0.143622368559E+02   -0.13185E+01   -0.12591E+02    16   0.114E+02    0.493E+00
DAV:   2    -0.141431206874E+02    0.21912E+00   -0.52172E+00    24   0.180E+01    0.156E+00
DAV:   3    -0.141047523111E+02    0.38368E-01   -0.90311E-02    24   0.258E+00    0.850E-01
DAV:   4    -0.141023518710E+02    0.24004E-02   -0.58208E-02    24   0.248E+00    0.155E-01
DAV:   5    -0.141032577357E+02   -0.90586E-03   -0.97057E-03    16   0.860E-01    0.782E-02
DAV:   6    -0.141034845700E+02   -0.22683E-03   -0.33350E-04    24   0.131E-01    0.396E-02
DAV:   7    -0.141039963314E+02   -0.51176E-03   -0.10568E-04    16   0.818E-02    0.133E-02
DAV:   8    -0.141044639088E+02   -0.46758E-03   -0.16143E-04    24   0.754E-02    0.173E-02
DAV:   9    -0.141045797234E+02   -0.11581E-03   -0.64639E-05    24   0.510E-02    0.320E-03
DAV:  10    -0.141046495089E+02   -0.69786E-04   -0.72296E-06    24   0.152E-02
   3 F= -.14104650E+02 E0= -.14108515E+02  d E =-.106087E+01
 BRION: g(F)=  0.630E+00 g(S)=  0.000E+00 retain N=  1 mean eig= 0.20
 eig:   0.202
 bond charge predicted
       N       E                     dE             d eps       ncg     rms          rms(c)
DAV:   1    -0.142161714670E+02   -0.11159E+00   -0.11153E+00    16   0.993E+00    0.491E-01
DAV:   2    -0.142130027809E+02    0.31687E-02   -0.32491E-02    32   0.142E+00    0.211E-01
DAV:   3    -0.142127355348E+02    0.26725E-03   -0.15448E-03    24   0.339E-01    0.962E-02
DAV:   4    -0.142128420909E+02   -0.10656E-03   -0.38137E-04    24   0.181E-01    0.294E-02
DAV:   5    -0.142128870373E+02   -0.44946E-04   -0.92131E-05    24   0.797E-02
   4 F= -.14212887E+02 E0= -.14216752E+02  d E =-.108238E+00
 BRION: g(F)=  0.168E+00 g(S)=  0.000E+00 retain N=  1 mean eig= 0.44
 eig:   0.442
 bond charge predicted
       N       E                     dE             d eps       ncg     rms          rms(c)
DAV:   1    -0.142533759777E+02   -0.40534E-01   -0.10318E+00    16   0.904E+00    0.507E-01
DAV:   2    -0.142492752805E+02    0.41007E-02   -0.24320E-02    32   0.125E+00    0.238E-01
DAV:   3    -0.142491207324E+02    0.15455E-03   -0.27628E-03    24   0.421E-01    0.979E-02
DAV:   4    -0.142493804268E+02   -0.25969E-03   -0.95428E-04    24   0.231E-01    0.478E-02
DAV:   5    -0.142494711290E+02   -0.90702E-04   -0.36384E-04    32   0.134E-01
   5 F= -.14249471E+02 E0= -.14253336E+02  d E =-.365841E-01
 BRION: g(F)=  0.702E-02 g(S)=  0.000E+00 retain N=  1 mean eig= 0.38
 eig:   0.383
 bond charge predicted
       N       E                     dE             d eps       ncg     rms          rms(c)
DAV:   1    -0.142504846641E+02   -0.11042E-02   -0.11837E-01    16   0.350E+00    0.135E-01
DAV:   2    -0.142503343101E+02    0.15035E-03   -0.32395E-03    32   0.464E-01    0.445E-02
DAV:   3    -0.142503522997E+02   -0.17990E-04   -0.49295E-05    16   0.691E-02
   6 F= -.14250352E+02 E0= -.14254218E+02  d E =-.881171E-03
 BRION: g(F)=  0.118E-02 g(S)=  0.000E+00 retain N=  1 mean eig= 0.26
 eig:   0.257
 bond charge predicted
       N       E                     dE             d eps       ncg     rms          rms(c)
DAV:   1    -0.142506047070E+02   -0.27040E-03   -0.52713E-03    16   0.711E-01    0.317E-02
DAV:   2    -0.142506079216E+02   -0.32146E-05   -0.17631E-04    32   0.110E-01
   7 F= -.14250608E+02 E0= -.14254473E+02  d E =-.255622E-03
 BRION: g(F)=  0.212E-04 g(S)=  0.000E+00 retain N=  1 mean eig= 0.33
 eig:   0.328
 reached required accuracy - stopping structural energy minimisation
 writing wavefunctions
