    3    3   10    1
  0.1706667E+03  0.8000000E-09  0.8000000E-09  0.8000000E-09  0.5000000E-15
  1.000000000000000E-004
  CAR 
 unknown system                          
      8      1      8
 
  0.0000000E+00  0.0000000E+00  0.0000000E+00  0.1000000E+01
    1      -25.274775
    2      -12.953942
    3       -9.163241
    4       -7.072702
    5       -1.080653
    6        1.077080
    7        1.225785
    8        1.721387
