 vasp.5.3.5 31Mar14 (build Jan 09 2015 16:57:47) complex                        
  
 POSCAR found :  2 types and       3 ions
 LDA part: xc-table for Pade appr. of Perdew
 POSCAR found :  2 types and       3 ions
 POSCAR, INCAR and KPOINTS ok, starting setup
 WARNING: small aliasing (wrap around) errors must be expected
 FFT: planning ...
 WAVECAR not read
 entering main loop
       N       E                     dE             d eps       ncg     rms          rms(c)
DAV:   1     0.610267126970E+02    0.61027E+02   -0.16587E+03    16   0.338E+02
DAV:   2    -0.500667122337E+01   -0.66033E+02   -0.66033E+02    24   0.115E+02
DAV:   3    -0.158104096467E+02   -0.10804E+02   -0.10804E+02    16   0.695E+01
DAV:   4    -0.159789791140E+02   -0.16857E+00   -0.16857E+00    24   0.101E+01
DAV:   5    -0.159791681917E+02   -0.18908E-03   -0.18908E-03    24   0.295E-01    0.728E+00
DAV:   6    -0.144289272396E+02    0.15502E+01   -0.65094E+00    16   0.169E+01    0.346E+00
DAV:   7    -0.142965430081E+02    0.13238E+00   -0.13628E-01    32   0.249E+00    0.205E+00
DAV:   8    -0.142282379497E+02    0.68305E-01   -0.68756E-02    24   0.247E+00    0.196E-01
DAV:   9    -0.142317464803E+02   -0.35085E-02   -0.42412E-03    24   0.373E-01    0.135E-01
DAV:  10    -0.142416361414E+02   -0.98897E-02   -0.45154E-03    16   0.547E-01    0.621E-02
DAV:  11    -0.142484823307E+02   -0.68462E-02   -0.48757E-03    16   0.389E-01    0.982E-02
DAV:  12    -0.142494433325E+02   -0.96100E-03   -0.13964E-03    32   0.235E-01    0.233E-02
DAV:  13    -0.142504016824E+02   -0.95835E-03   -0.15980E-04    24   0.875E-02    0.965E-03
DAV:  14    -0.142505334677E+02   -0.13179E-03   -0.62910E-06    32   0.165E-02    0.665E-03
DAV:  15    -0.142506461508E+02   -0.11268E-03   -0.13609E-05    32   0.216E-02    0.716E-04
DAV:  16    -0.142506582932E+02   -0.12142E-04   -0.40023E-07    32   0.375E-03
   1 F= -.14250658E+02 E0= -.14254524E+02  d E =-.142507E+02
 BRION: g(F)=  0.150E-03 g(S)=  0.000E+00
 reached required accuracy - stopping structural energy minimisation
 writing wavefunctions
