unknown system                          
   1.00000000000000     
     3.181273    0.000000    0.000000
     1.590637    2.755064    0.000000
     1.590637    0.918355    2.597499
   Ag
     1
Direct
  0.000000  0.000000  0.000000
 
   32   32   32
  178.41      172.84      157.53      135.93      111.80      87.909      65.809      46.442      30.677      19.192    
  11.963      7.9834      5.6542      4.2022      3.3854      2.9852      2.8664      2.9852      3.3854      4.2022    
  5.6542      7.9834      11.963      19.192      30.677      46.442      65.809      87.909      111.80      135.93    
  157.53      172.84      172.84      162.41      144.05      121.41      97.730      75.074      54.619      37.273    
  23.875      14.803      9.5228      6.6163      4.7846      3.6993      3.1238      2.8798      2.8791      3.1230    
  3.7000      4.7853      6.6157      9.5220      14.803      23.876      37.273      54.618      75.075      97.730    
  121.41      144.05      162.41      172.84      157.53      144.05      124.84      103.09      81.232      60.772    
  42.778      28.206      17.710      11.188      7.5904      5.4125      4.0555      3.2910      2.9161      2.8052    
  2.9162      3.2910      4.0555      5.4125      7.5904      11.188      17.710      28.206      42.778      60.772    
  81.232      103.09      124.84      144.05      157.53      162.41      135.93      121.41      103.09      83.396    
  64.082      46.429      31.530      20.239      12.790      8.5141      6.0281      4.4275      3.4805      2.9734    
  2.7570      2.7576      2.9740      3.4799      4.4269      6.0286      8.5147      12.790      20.238      31.530    
  46.430      64.081      83.395      103.09      121.41      135.93      144.05      144.05      111.80      97.730    
  81.232      64.082      47.708      33.334      21.958      14.063      9.3086      6.5686      4.7785      3.6732    
  3.0461      2.7326      2.6381      2.7326      3.0461      3.6732      4.7785      6.5686      9.3086      14.063    
  21.958      33.334      47.708      64.082      81.232      97.730      111.80      121.41      124.84      121.41    
  87.909      75.075      60.772      46.429      33.334      22.569      14.770      9.8530      6.9701      5.0695    
  3.8482      3.1219      2.7256      2.5519      2.5516      2.7252      3.1223      3.8485      5.0691      6.9697    
  9.8533      14.770      22.568      33.334      46.430      60.772      75.075      87.909      97.730      103.09    
  103.09      97.730      65.808      54.618      42.778      31.530      21.959      14.770      10.048      7.1835    
  5.2612      3.9823      3.1900      2.7290      2.4910      2.4178      2.4910      2.7290      3.1900      3.9823    
  5.2612      7.1835      10.048      14.770      21.959      31.530      42.778      54.619      65.808      75.075    
  81.232      83.395      81.232      75.075      46.442      37.273      28.206      20.238      14.063      9.8532    
  7.1837      5.3282      4.0545      3.2370      2.7370      2.4515      2.3214      2.3215      2.4516      2.7369    
  3.2369      4.0547      5.3284      7.1836      9.8530      14.063      20.238      28.205      37.273      46.442    
  54.618      60.772      64.082      64.082      60.772      54.618      30.677      23.876      17.710      12.790    
  9.3082      6.9699      5.2613      4.0546      3.2537      2.7426      2.4296      2.2589      2.2043      2.2589    
  2.4296      2.7426      3.2537      4.0546      5.2613      6.9699      9.3082      12.790      17.710      23.876    
  30.677      37.273      42.778      46.430      47.708      46.430      42.778      37.273      19.192      14.803    
  11.189      8.5144      6.5686      5.0693      3.9821      3.2370      2.7426      2.4226      2.2279      2.1348    
  2.1348      2.2279      2.4226      2.7426      3.2370      3.9821      5.0693      6.5686      8.5144      11.189    
  14.803      19.192      23.876      28.205      31.530      33.334      33.334      31.530      28.205      23.876    
  11.963      9.5224      7.5904      6.0283      4.7788      3.8484      3.1900      2.7369      2.4296      2.2280    
  2.1116      2.0732      2.1116      2.2279      2.4296      2.7369      3.1900      3.8484      4.7788      6.0284    
  7.5904      9.5224      11.962      14.803      17.710      20.238      21.959      22.569      21.959      20.238    
  17.710      14.803      7.9834      6.6160      5.4121      4.4272      3.6732      3.1221      2.7291      2.4515    
  2.2589      2.1348      2.0732      2.0732      2.1348      2.2589      2.4516      2.7291      3.1221      3.6732    
  4.4273      5.4121      6.6160      7.9835      9.5224      11.189      12.790      14.063      14.770      14.770    
  14.063      12.790      11.189      9.5223      5.6546      4.7849      4.0555      3.4802      3.0458      2.7254    
  2.4911      2.3215      2.2044      2.1348      2.1116      2.1348      2.2044      2.3215      2.4911      2.7254    
  3.0458      3.4802      4.0556      4.7850      5.6547      6.6160      7.5904      8.5144      9.3082      9.8531    
  10.048      9.8531      9.3082      8.5144      7.5904      6.6160      4.2022      3.6997      3.2914      2.9737    
  2.7326      2.5517      2.4176      2.3215      2.2589      2.2279      2.2279      2.2589      2.3215      2.4176    
  2.5517      2.7326      2.9737      3.2915      3.6997      4.2023      4.7850      5.4121      6.0284      6.5686    
  6.9699      7.1837      7.1837      6.9699      6.5685      6.0283      5.4120      4.7850      3.3849      3.1234    
  2.9161      2.7573      2.6384      2.5517      2.4910      2.4516      2.4296      2.4226      2.4296      2.4516    
  2.4910      2.5517      2.6384      2.7572      2.9161      3.1234      3.3850      3.6997      4.0556      4.4273    
  4.7788      5.0693      5.2612      5.3283      5.2612      5.0693      4.7788      4.4272      4.0555      3.6997    
  2.9852      2.8795      2.8048      2.7573      2.7326      2.7254      2.7291      2.7369      2.7426      2.7426    
  2.7369      2.7291      2.7254      2.7326      2.7572      2.8046      2.8794      2.9852      3.1234      3.2915    
  3.4802      3.6732      3.8484      3.9821      4.0546      4.0546      3.9821      3.8484      3.6732      3.4802    
  3.2914      3.1234      2.8669      2.8795      2.9162      2.9738      3.0458      3.1221      3.1900      3.2370    
  3.2537      3.2370      3.1900      3.1221      3.0458      2.9737      2.9161      2.8794      2.8669      2.8794    
  2.9161      2.9737      3.0458      3.1221      3.1900      3.2370      3.2537      3.2370      3.1900      3.1221    
  3.0458      2.9738      2.9162      2.8795      2.9852      3.1234      3.2914      3.4802      3.6732      3.8484    
  3.9821      4.0546      4.0546      3.9821      3.8484      3.6732      3.4802      3.2915      3.1234      2.9852    
  2.8794      2.8046      2.7572      2.7326      2.7254      2.7291      2.7369      2.7426      2.7426      2.7369    
  2.7291      2.7254      2.7326      2.7573      2.8048      2.8795      3.3849      3.6997      4.0555      4.4272    
  4.7788      5.0693      5.2612      5.3283      5.2612      5.0693      4.7788      4.4273      4.0556      3.6997    
  3.3850      3.1234      2.9161      2.7572      2.6384      2.5517      2.4910      2.4516      2.4296      2.4226    
  2.4296      2.4516      2.4910      2.5517      2.6384      2.7573      2.9161      3.1234      4.2022      4.7850    
  5.4120      6.0283      6.5685      6.9699      7.1837      7.1837      6.9699      6.5686      6.0284      5.4121    
  4.7850      4.2023      3.6997      3.2915      2.9737      2.7326      2.5517      2.4176      2.3215      2.2589    
  2.2279      2.2279      2.2589      2.3215      2.4176      2.5517      2.7326      2.9737      3.2914      3.6997    
  5.6546      6.6160      7.5904      8.5144      9.3082      9.8531      10.048      9.8531      9.3082      8.5144    
  7.5904      6.6160      5.6547      4.7850      4.0556      3.4802      3.0458      2.7254      2.4911      2.3215    
  2.2044      2.1348      2.1116      2.1348      2.2044      2.3215      2.4911      2.7254      3.0458      3.4802    
  4.0555      4.7849      7.9834      9.5223      11.189      12.790      14.063      14.770      14.770      14.063    
  12.790      11.189      9.5224      7.9835      6.6160      5.4121      4.4273      3.6732      3.1221      2.7291    
  2.4516      2.2589      2.1348      2.0732      2.0732      2.1348      2.2589      2.4515      2.7291      3.1221    
  3.6732      4.4272      5.4121      6.6160      11.963      14.803      17.710      20.238      21.959      22.569    
  21.959      20.238      17.710      14.803      11.962      9.5224      7.5904      6.0284      4.7788      3.8484    
  3.1900      2.7369      2.4296      2.2279      2.1116      2.0732      2.1116      2.2280      2.4296      2.7369    
  3.1900      3.8484      4.7788      6.0283      7.5904      9.5224      19.192      23.876      28.205      31.530    
  33.334      33.334      31.530      28.205      23.876      19.192      14.803      11.189      8.5144      6.5686    
  5.0693      3.9821      3.2370      2.7426      2.4226      2.2279      2.1348      2.1348      2.2279      2.4226    
  2.7426      3.2370      3.9821      5.0693      6.5686      8.5144      11.189      14.803      30.677      37.273    
  42.778      46.430      47.708      46.430      42.778      37.273      30.677      23.876      17.710      12.790    
  9.3082      6.9699      5.2613      4.0546      3.2537      2.7426      2.4296      2.2589      2.2043      2.2589    
  2.4296      2.7426      3.2537      4.0546      5.2613      6.9699      9.3082      12.790      17.710      23.876    
  46.442      54.618      60.772      64.082      64.082      60.772      54.618      46.442      37.273      28.205    
  20.238      14.063      9.8530      7.1836      5.3284      4.0547      3.2369      2.7369      2.4516      2.3215    
  2.3214      2.4515      2.7370      3.2370      4.0545      5.3282      7.1837      9.8532      14.063      20.238    
  28.206      37.273      65.808      75.075      81.232      83.395      81.232      75.075      65.808      54.619    
  42.778      31.530      21.959      14.770      10.048      7.1835      5.2612      3.9823      3.1900      2.7290    
  2.4910      2.4178      2.4910      2.7290      3.1900      3.9823      5.2612      7.1835      10.048      14.770    
  21.959      31.530      42.778      54.618      87.909      97.730      103.09      103.09      97.730      87.909    
  75.075      60.772      46.430      33.334      22.568      14.770      9.8533      6.9697      5.0691      3.8485    
  3.1223      2.7252      2.5516      2.5519      2.7256      3.1219      3.8482      5.0695      6.9701      9.8530    
  14.770      22.569      33.334      46.429      60.772      75.075      111.80      121.41      124.84      121.41    
  111.80      97.730      81.232      64.082      47.708      33.334      21.958      14.063      9.3086      6.5686    
  4.7785      3.6732      3.0461      2.7326      2.6381      2.7326      3.0461      3.6732      4.7785      6.5686    
  9.3086      14.063      21.958      33.334      47.708      64.082      81.232      97.730      135.93      144.05    
  144.05      135.93      121.41      103.09      83.395      64.081      46.430      31.530      20.238      12.790    
  8.5147      6.0286      4.4269      3.4799      2.9740      2.7576      2.7570      2.9734      3.4805      4.4275    
  6.0281      8.5141      12.790      20.239      31.530      46.429      64.082      83.396      103.09      121.41    
  157.53      162.41      157.53      144.05      124.84      103.09      81.232      60.772      42.778      28.206    
  17.710      11.188      7.5904      5.4125      4.0555      3.2910      2.9162      2.8052      2.9161      3.2910    
  4.0555      5.4125      7.5904      11.188      17.710      28.206      42.778      60.772      81.232      103.09    
  124.84      144.05      172.84      172.84      162.41      144.05      121.41      97.730      75.075      54.618    
  37.273      23.876      14.803      9.5220      6.6157      4.7853      3.7000      3.1230      2.8791      2.8798    
  3.1238      3.6993      4.7846      6.6163      9.5228      14.803      23.875      37.273      54.619      75.074    
  97.730      121.41      144.05      162.41      172.84      162.41      144.05      121.41      97.730      75.074    
  54.619      37.273      23.875      14.803      9.5228      6.6163      4.7846      3.6993      3.1238      2.8798    
  2.8791      3.1230      3.7000      4.7853      6.6157      9.5220      14.803      23.876      37.273      54.618    
  75.075      97.730      121.41      144.05      162.41      172.84      162.41      148.35      128.37      105.86    
  83.356      62.375      43.946      28.994      18.184      11.437      7.7192      5.4935      4.1056      3.3239    
  2.9413      2.8282      2.9413      3.3239      4.1056      5.4935      7.7192      11.437      18.184      28.994    
  43.946      62.375      83.356      105.86      128.37      148.35      162.41      167.52      144.05      128.37    
  108.75      87.838      67.499      48.977      33.313      21.364      13.412      8.8298      6.2186      4.5454    
  3.5550      3.0261      2.8011      2.8018      3.0268      3.5544      4.5448      6.2192      8.8304      13.411    
  21.363      33.314      48.977      67.499      87.838      108.75      128.37      144.05      152.87      152.87    
  121.41      105.86      87.838      69.292      51.681      36.194      23.835      15.149      9.8712      6.8911    
  4.9804      3.7982      3.1296      2.7973      2.6975      2.7973      3.1296      3.7982      4.9804      6.8911    
  9.8712      15.149      23.835      36.194      51.681      69.292      87.837      105.86      121.41      132.13    
  135.98      132.13      97.730      83.356      67.499      51.681      37.206      25.186      16.344      10.695    
  7.4366      5.3665      4.0309      3.2391      2.8105      2.6243      2.6239      2.8101      3.2395      4.0313    
  5.3661      7.4361      10.695      16.344      25.186      37.206      51.681      67.499      83.356      97.730    
  108.85      114.97      114.97      108.85      75.075      62.375      48.977      36.194      25.186      16.770    
  11.153      7.7956      5.6552      4.2255      3.3424      2.8335      2.5742      2.4950      2.5742      2.8335    
  3.3424      4.2255      5.6551      7.7955      11.153      16.770      25.186      36.194      48.977      62.375    
  75.075      85.667      92.759      95.262      92.759      85.667      54.618      43.946      33.313      23.835    
  16.344      11.153      7.9222      5.8098      4.3543      3.4227      2.8594      2.5428      2.4005      2.4007    
  2.5430      2.8592      3.4226      4.3545      5.8100      7.9220      11.153      16.344      23.835      33.313    
  43.946      54.619      64.125      71.300      75.171      75.171      71.300      64.125      37.273      28.994    
  21.364      15.149      10.695      7.7958      5.8100      4.3997      3.4666      2.8788      2.5255      2.3361    
  2.2763      2.3361      2.5255      2.8788      3.4666      4.3997      5.8100      7.7957      10.695      15.149    
  21.364      28.994      37.273      45.215      51.810      56.177      57.706      56.177      51.810      45.215    
  23.876      18.184      13.411      9.8709      7.4363      5.6551      4.3544      3.4667      2.8861      2.5178    
  2.2985      2.1950      2.1950      2.2984      2.5178      2.8861      3.4667      4.3544      5.6552      7.4363    
  9.8708      13.411      18.184      23.876      29.843      35.289      39.437      41.678      41.678      39.437    
  35.289      29.843      14.803      11.437      8.8300      6.8911      5.3663      4.2253      3.4227      2.8788    
  2.5178      2.2861      2.1545      2.1115      2.1545      2.2861      2.5178      2.8788      3.4227      4.2253    
  5.3663      6.8911      8.8301      11.437      14.803      18.687      22.602      25.964      28.231      29.031    
  28.231      25.964      22.602      18.687      9.5224      7.7193      6.2189      4.9808      4.0310      3.3424    
  2.8593      2.5254      2.2984      2.1545      2.0837      2.0837      2.1545      2.2985      2.5254      2.8593    
  3.3424      4.0311      4.9808      6.2189      7.7192      9.5224      11.696      14.087      16.377      18.184    
  19.180      19.180      18.184      16.377      14.087      11.696      6.6160      5.4931      4.5451      3.7982    
  3.2393      2.8337      2.5429      2.3361      2.1950      2.1115      2.0837      2.1115      2.1950      2.3361    
  2.5429      2.8337      3.2393      3.7982      4.5451      5.4931      6.6160      7.8474      9.1617      10.493    
  11.668      12.481      12.773      12.481      11.668      10.493      9.1617      7.8473      4.7849      4.1056    
  3.5547      3.1293      2.8103      2.5742      2.4006      2.2764      2.1950      2.1545      2.1545      2.1950    
  2.2763      2.4006      2.5742      2.8103      3.1293      3.5547      4.1057      4.7850      5.5698      6.4074    
  7.2217      7.9368      8.4845      8.7852      8.7852      8.4845      7.9368      7.2217      6.4074      5.5697    
  3.6997      3.3244      3.0264      2.7973      2.6241      2.4948      2.4006      2.3361      2.2984      2.2860    
  2.2985      2.3361      2.4006      2.4948      2.6241      2.7973      3.0264      3.3245      3.6997      4.1497    
  4.6552      5.1792      5.6705      6.0734      6.3379      6.4300      6.3379      6.0733      5.6705      5.1792    
  4.6552      4.1497      3.1234      2.9413      2.8014      2.6979      2.6241      2.5742      2.5429      2.5254    
  2.5178      2.5178      2.5254      2.5429      2.5742      2.6241      2.6978      2.8014      2.9412      3.1234    
  3.3504      3.6179      3.9114      4.2062      4.4700      4.6695      4.7770      4.7770      4.6694      4.4700    
  4.2061      3.9114      3.6179      3.3504      2.8795      2.8277      2.8015      2.7973      2.8103      2.8337    
  2.8593      2.8788      2.8861      2.8788      2.8593      2.8337      2.8103      2.7973      2.8014      2.8276    
  2.8794      2.9589      3.0659      3.1961      3.3396      3.4810      3.6015      3.6826      3.7112      3.6826    
  3.6014      3.4810      3.3396      3.1961      3.0659      2.9590      2.8795      2.9413      3.0265      3.1293    
  3.2393      3.3424      3.4227      3.4667      3.4667      3.4227      3.3424      3.2394      3.1293      3.0264    
  2.9413      2.8794      2.8430      2.8315      2.8430      2.8734      2.9160      2.9616      3.0000      3.0218    
  3.0218      2.9999      2.9617      2.9160      2.8734      2.8430      2.8316      2.8430      3.1234      3.3244    
  3.5547      3.7982      4.0311      4.2252      4.3544      4.3997      4.3544      4.2253      4.0311      3.7982    
  3.5547      3.3245      3.1234      2.9589      2.8315      2.7377      2.6726      2.6309      2.6074      2.5964    
  2.5926      2.5918      2.5926      2.5964      2.6074      2.6309      2.6726      2.7378      2.8316      2.9590    
  3.6997      4.1056      4.5451      4.9808      5.3663      5.6551      5.8099      5.8099      5.6551      5.3663    
  4.9808      4.5451      4.1056      3.6997      3.3504      3.0659      2.8430      2.6726      2.5445      2.4503    
  2.3842      2.3423      2.3220      2.3219      2.3422      2.3842      2.4503      2.5445      2.6726      2.8430    
  3.0659      3.3504      4.7849      5.4931      6.2189      6.8911      7.4363      7.7957      7.9221      7.7957    
  7.4363      6.8911      6.2189      5.4931      4.7850      4.1497      3.6179      3.1961      2.8734      2.6309    
  2.4503      2.3179      2.2261      2.1716      2.1535      2.1716      2.2261      2.3179      2.4503      2.6309    
  2.8733      3.1961      3.6179      4.1497      6.6160      7.7192      8.8301      9.8709      10.695      11.153    
  11.153      10.695      9.8708      8.8300      7.7193      6.6161      5.5698      4.6552      3.9114      3.3397    
  2.9160      2.6074      2.3842      2.2261      2.1230      2.0716      2.0716      2.1230      2.2261      2.3842    
  2.6074      2.9160      3.3396      3.9114      4.6552      5.5697      9.5224      11.437      13.411      15.149    
  16.344      16.769      16.344      15.149      13.411      11.437      9.5224      7.8474      6.4074      5.1792    
  4.2062      3.4811      2.9617      2.5964      2.3422      2.1716      2.0716      2.0384      2.0716      2.1716    
  2.3423      2.5964      2.9616      3.4811      4.2062      5.1792      6.4074      7.8473      14.803      18.184    
  21.364      23.835      25.186      25.186      23.835      21.363      18.184      14.803      11.696      9.1617    
  7.2217      5.6705      4.4700      3.6015      3.0000      2.5926      2.3220      2.1535      2.0716      2.0716    
  2.1535      2.3220      2.5926      2.9999      3.6014      4.4700      5.6705      7.2217      9.1618      11.696    
  23.876      28.994      33.313      36.194      37.206      36.195      33.313      28.994      23.876      18.687    
  14.087      10.493      7.9368      6.0734      4.6695      3.6826      3.0217      2.5918      2.3220      2.1716    
  2.1230      2.1716      2.3220      2.5918      3.0217      3.6826      4.6695      6.0733      7.9368      10.493    
  14.087      18.687      37.273      43.946      48.977      51.681      51.681      48.977      43.946      37.273    
  29.843      22.602      16.377      11.668      8.4845      6.3378      4.7770      3.7113      3.0217      2.5925    
  2.3423      2.2261      2.2260      2.3422      2.5926      3.0218      3.7112      4.7769      6.3379      8.4846    
  11.668      16.377      22.602      29.843      54.618      62.375      67.499      69.292      67.499      62.375    
  54.618      45.215      35.289      25.963      18.184      12.481      8.7852      6.4299      4.7770      3.6827    
  2.9999      2.5963      2.3842      2.3180      2.3842      2.5963      2.9999      3.6827      4.7769      6.4299    
  8.7852      12.482      18.184      25.963      35.289      45.215      75.075      83.356      87.838      87.838    
  83.356      75.075      64.125      51.810      39.437      28.231      19.180      12.773      8.7853      6.3377    
  4.6693      3.6016      2.9618      2.6073      2.4502      2.4504      2.6075      2.9615      3.6013      4.6696    
  6.3380      8.7851      12.772      19.181      28.231      39.437      51.810      64.125      97.730      105.86    
  108.75      105.86      97.730      85.667      71.299      56.177      41.678      29.031      19.180      12.481    
  8.4848      6.0733      4.4697      3.4810      2.9163      2.6309      2.5442      2.6309      2.9163      3.4810    
  4.4697      6.0733      8.4848      12.481      19.180      29.031      41.678      56.177      71.299      85.667    
  121.41      128.37      128.37      121.41      108.85      92.759      75.170      57.706      41.678      28.231    
  18.183      11.668      7.9370      5.6707      4.2059      3.3394      2.8736      2.6729      2.6724      2.8731    
  3.3399      4.2064      5.6703      7.9365      11.668      18.184      28.231      41.678      57.706      75.171    
  92.759      108.85      144.05      148.35      144.05      132.13      114.97      95.263      75.171      56.176    
  39.437      25.964      16.377      10.492      7.2217      5.1796      3.9114      3.1957      2.8430      2.7382    
  2.8430      3.1957      3.9114      5.1796      7.2217      10.492      16.377      25.964      39.437      56.176    
  75.171      95.263      114.97      132.13      162.41      162.41      152.87      135.98      114.97      92.759    
  71.300      51.810      35.289      22.603      14.088      9.1614      6.4071      4.6555      3.6182      3.0656    
  2.8312      2.8319      3.0663      3.6175      4.6548      6.4077      9.1621      14.087      22.602      35.289    
  51.810      71.299      92.758      114.97      135.98      152.87      172.84      167.52      152.87      132.13    
  108.85      85.667      64.126      45.215      29.843      18.687      11.696      7.8473      5.5692      4.1497    
  3.3509      2.9590      2.8425      2.9590      3.3509      4.1497      5.5692      7.8473      11.696      18.687    
  29.843      45.215      64.126      85.667      108.85      132.13      152.87      167.52      157.53      144.05    
  124.84      103.09      81.232      60.772      42.778      28.206      17.710      11.188      7.5904      5.4125    
  4.0555      3.2910      2.9161      2.8052      2.9162      3.2910      4.0555      5.4125      7.5904      11.188    
  17.710      28.206      42.778      60.772      81.232      103.09      124.84      144.05      157.53      162.41    
  144.05      128.37      108.75      87.838      67.499      48.977      33.313      21.364      13.412      8.8298    
  6.2186      4.5454      3.5550      3.0261      2.8011      2.8018      3.0268      3.5544      4.5448      6.2192    
  8.8304      13.411      21.363      33.314      48.977      67.499      87.838      108.75      128.37      144.05    
  152.87      152.87      124.84      108.75      90.161      71.113      53.068      37.196      24.497      15.536    
  10.072      7.0030      5.0507      3.8416      3.1584      2.8195      2.7179      2.8195      3.1585      3.8416    
  5.0507      7.0030      10.072      15.536      24.497      37.196      53.068      71.113      90.161      108.75    
  124.84      135.98      139.98      135.98      103.09      87.838      71.113      54.497      39.291      26.610    
  17.211      11.161      7.6861      5.5249      4.1281      3.3011      2.8550      2.6620      2.6616      2.8546    
  3.3015      4.1286      5.5245      7.6856      11.162      17.212      26.610      39.291      54.497      71.113    
  87.838      103.09      114.97      121.53      121.53      114.97      81.232      67.499      53.068      39.291    
  27.355      18.135      11.914      8.2024      5.9126      4.3845      3.4413      2.9006      2.6270      2.5439    
  2.6270      2.9006      3.4413      4.3845      5.9126      8.2024      11.914      18.135      27.355      39.291    
  53.068      67.499      81.232      92.759      100.52      103.27      100.52      92.759      60.772      48.977    
  37.196      26.610      18.135      12.183      8.4848      6.1670      4.5772      3.5600      2.9487      2.6086    
  2.4572      2.4574      2.6088      2.9485      3.5597      4.5774      6.1672      8.4846      12.183      18.135    
  26.610      37.196      48.977      60.772      71.300      79.277      83.598      83.598      79.278      71.300    
  42.778      33.313      24.498      17.211      11.914      8.4847      6.2559      4.6813      3.6394      2.9881    
  2.6014      2.3969      2.3328      2.3969      2.6014      2.9881      3.6394      4.6813      6.2559      8.4847    
  11.914      17.211      24.498      33.313      42.778      51.810      59.301      64.265      66.005      64.265    
  59.301      51.810      28.205      21.364      15.536      11.161      8.2026      6.1671      4.6813      3.6676    
  3.0104      2.5996      2.3589      2.2468      2.2467      2.3589      2.5997      3.0104      3.6675      4.6813    
  6.1672      8.2027      11.161      15.536      21.364      28.205      35.289      41.701      46.564      49.187    
  49.187      46.564      41.701      35.289      17.710      13.411      10.071      7.6859      5.9126      4.5773    
  3.6395      3.0104      2.5996      2.3406      2.1957      2.1487      2.1957      2.3405      2.5996      3.0104    
  3.6395      4.5773      5.9126      7.6858      10.071      13.411      17.710      22.602      27.470      31.607    
  34.382      35.358      34.382      31.607      27.470      22.602      11.189      8.8301      7.0030      5.5247    
  4.3843      3.5598      2.9881      2.5996      2.3406      2.1787      2.0999      2.0998      2.1787      2.3406    
  2.5996      2.9881      3.5598      4.3843      5.5247      7.0030      8.8300      11.189      14.087      17.262    
  20.269      22.621      23.911      23.911      22.621      20.269      17.262      14.087      7.5904      6.2189    
  5.0511      4.1284      3.4413      2.9486      2.6014      2.3589      2.1957      2.0999      2.0681      2.0999    
  2.1957      2.3589      2.6014      2.9486      3.4413      4.1284      5.0511      6.2189      7.5904      9.1617    
  10.948      12.793      14.425      15.552      15.954      15.552      14.425      12.793      10.948      9.1618    
  5.4120      4.5451      3.8416      3.3013      2.9008      2.6087      2.3970      2.2468      2.1487      2.0998    
  2.0999      2.1487      2.2468      2.3969      2.6087      2.9008      3.3013      3.8416      4.5451      5.4121    
  6.4074      7.4595      8.5062      9.4808      10.252      10.681      10.681      10.252      9.4808      8.5062    
  7.4594      6.4074      4.0555      3.5547      3.1581      2.8548      2.6270      2.4573      2.3329      2.2468    
  2.1957      2.1787      2.1957      2.2468      2.3329      2.4572      2.6270      2.8548      3.1581      3.5547    