unknown system                          
   1.00000000000000     
     3.181273    0.000000    0.000000
     1.590637    2.755064    0.000000
     1.590637    0.918355    2.597499
   Ag
     1
Direct
  0.000000  0.000000  0.000000
 
   32   32   32
 0.17840643341E+03 0.17283735837E+03 0.15753264115E+03 0.13592845835E+03 0.11179847981E+03
 0.87909244575E+02 0.65808879724E+02 0.46441923255E+02 0.30676994179E+02 0.19192282817E+02
 0.11963022201E+02 0.79833978857E+01 0.56541576102E+01 0.42022114547E+01 0.33854356839E+01
 0.29851766309E+01 0.28664421791E+01 0.29851766309E+01 0.33854356839E+01 0.42022114547E+01
 0.56541576102E+01 0.79833978857E+01 0.11963022201E+02 0.19192282817E+02 0.30676994179E+02
 0.46441923255E+02 0.65808879724E+02 0.87909244575E+02 0.11179847981E+03 0.13592845835E+03
 0.15753264115E+03 0.17283735837E+03 0.17283701767E+03 0.16241392973E+03 0.14405333799E+03
 0.12141146288E+03 0.97729708919E+02 0.75074420904E+02 0.54618662305E+02 0.37273179078E+02
 0.23875368174E+02 0.14802770817E+02 0.95227509499E+01 0.66163454261E+01 0.47845721415E+01
 0.36993333534E+01 0.31237556339E+01 0.28798435121E+01 0.28791302860E+01 0.31230323906E+01
 0.37000339666E+01 0.47852999476E+01 0.66156554000E+01 0.95220125834E+01 0.14803435591E+02
 0.23876098922E+02 0.37272533857E+02 0.54617943466E+02 0.75075031922E+02 0.97730339414E+02
 0.12141069909E+03 0.14405246865E+03 0.16241437391E+03 0.17283758673E+03 0.15753214653E+03
 0.14405255252E+03 0.12484424246E+03 0.10309416268E+03 0.81231891609E+02 0.60771767231E+02
 0.42778248438E+02 0.28205902574E+02 0.17710298656E+02 0.11188296991E+02 0.75904275161E+01
 0.54124894128E+01 0.40554971996E+01 0.32909835129E+01 0.29161477277E+01 0.28051954198E+01
 0.29161583823E+01 0.32909966512E+01 0.40555027970E+01 0.54124832660E+01 0.75904154421E+01
 0.11188290139E+02 0.17710305221E+02 0.28205916819E+02 0.42778248840E+02 0.60771723991E+02
 0.81231782216E+02 0.10309398940E+03 0.12484403535E+03 0.14405236559E+03 0.15753203558E+03
 0.16241447797E+03 0.13592873221E+03 0.12141084832E+03 0.10309344406E+03 0.83395625183E+02
 0.64081920024E+02 0.46429328275E+02 0.31529941466E+02 0.20238653491E+02 0.12790069861E+02
 0.85141444168E+01 0.60280711965E+01 0.44275212796E+01 0.34804792583E+01 0.29734446309E+01
 0.27569906182E+01 0.27575706700E+01 0.29740465410E+01 0.34799399054E+01 0.44269387728E+01
 0.60286002659E+01 0.85147134612E+01 0.12789543054E+02 0.20238098318E+02 0.31530481883E+02
 0.46429886902E+02 0.64081343179E+02 0.83394941608E+02 0.10309378906E+03 0.12141124412E+03
 0.13592813810E+03 0.14405253650E+03 0.14405308321E+03 0.11179928996E+03 0.97730049624E+02
 0.81231576076E+02 0.64081646172E+02 0.47708449773E+02 0.33334125546E+02 0.21958453366E+02
 0.14063154902E+02 0.93085856851E+01 0.65685730934E+01 0.47784725108E+01 0.36732093843E+01
 0.30461038978E+01 0.27326142716E+01 0.26380924288E+01 0.27326289414E+01 0.30461219155E+01
 0.36732163036E+01 0.47784617099E+01 0.65685517888E+01 0.93085721124E+01 0.14063166901E+02
 0.21958494821E+02 0.33334181203E+02 0.47708488605E+02 0.64081639394E+02 0.81231512341E+02
 0.97729942838E+02 0.11179917980E+03 0.12141097027E+03 0.12484371982E+03 0.12141103979E+03
 0.87909412357E+02 0.75074929391E+02 0.60772044210E+02 0.46429434344E+02 0.33334293329E+02
 0.22568633216E+02 0.14769617318E+02 0.98529862365E+01 0.69700692803E+01 0.50694693362E+01
 0.38481815866E+01 0.31219289389E+01 0.27255537080E+01 0.25519187265E+01 0.25515740907E+01
 0.27252078798E+01 0.31222765866E+01 0.38485382985E+01 0.50691266745E+01 0.69696929922E+01
 0.98532953794E+01 0.14769987566E+02 0.22568380486E+02 0.33334038731E+02 0.46429820412E+02
 0.60772407859E+02 0.75074600434E+02 0.87909045894E+02 0.97730110620E+02 0.10309368299E+03
 0.10309337685E+03 0.97729830927E+02 0.65808385103E+02 0.54618482480E+02 0.42778248438E+02
 0.31530054439E+02 0.21958768900E+02 0.14769945980E+02 0.10047815758E+02 0.71835099081E+01
 0.52612288021E+01 0.39822545576E+01 0.31900042449E+01 0.27289588790E+01 0.24910419242E+01
 0.24177695757E+01 0.24910464524E+01 0.27289666742E+01 0.31900126401E+01 0.39822600093E+01
 0.52612278902E+01 0.71835020249E+01 0.10047803417E+02 0.14769938152E+02 0.21958774528E+02
 0.31530085274E+02 0.42778307273E+02 0.54618563230E+02 0.65808474012E+02 0.75074607337E+02
 0.81231827874E+02 0.83395376339E+02 0.81231782216E+02 0.75074530338E+02 0.46441856868E+02
 0.37272904761E+02 0.28205524199E+02 0.20238313251E+02 0.14063088515E+02 0.98532204064E+01
 0.71837371743E+01 0.53282481349E+01 0.40545207959E+01 0.32370377693E+01 0.27369953772E+01
 0.24514768337E+01 0.23214071051E+01 0.23215480166E+01 0.24516214677E+01 0.27368622670E+01
 0.32369034795E+01 0.40546708923E+01 0.53284083635E+01 0.71836050959E+01 0.98530348179E+01
 0.14063134131E+02 0.20238374699E+02 0.28205387935E+02 0.37272852675E+02 0.46442118038E+02
 0.54618468738E+02 0.60772173689E+02 0.64081573006E+02 0.64081683418E+02 0.60772235141E+02
 0.54618217782E+02 0.30677447091E+02 0.23875708878E+02 0.17710340365E+02 0.12789796009E+02
 0.93082284423E+01 0.69699014978E+01 0.52612705115E+01 0.40545871832E+01 0.32537022230E+01
 0.27426499380E+01 0.24296319704E+01 0.22588957463E+01 0.22043414071E+01 0.22588823665E+01
 0.24296156923E+01 0.27426444586E+01 0.32537132261E+01 0.40546083057E+01 0.52612821734E+01
 0.69698869082E+01 0.93081778528E+01 0.12789722862E+02 0.17710269692E+02 0.23875667021E+02
 0.30677451692E+02 0.37272919062E+02 0.42778348983E+02 0.46429652630E+02 0.47708131363E+02
 0.46429613050E+02 0.42778290549E+02 0.37272874561E+02 0.19192278075E+02 0.14803106778E+02
 0.11188746496E+02 0.85144230118E+01 0.65685683507E+01 0.50692968109E+01 0.39820984213E+01
 0.32369761247E+01 0.27426451952E+01 0.24225769492E+01 0.22279491029E+01 0.21347828684E+01
 0.21347600122E+01 0.22279120941E+01 0.24225653480E+01 0.27426495936E+01 0.32369726004E+01
 0.39821040009E+01 0.50693261741E+01 0.65685962801E+01 0.85144107193E+01 0.11188692140E+02
 0.14803024077E+02 0.19192167271E+02 0.23875662278E+02 0.28205449579E+02 0.31530250895E+02
 0.33334211256E+02 0.33334176460E+02 0.31530203288E+02 0.28205476799E+02 0.23875762960E+02
 0.11962527580E+02 0.95224221929E+01 0.75904275161E+01 0.60283331016E+01 0.47787880442E+01
 0.38483613163E+01 0.31900042449E+01 0.27369170429E+01 0.24295902610E+01 0.22279563073E+01
 0.21115690053E+01 0.20732143695E+01 0.21115584946E+01 0.22279414701E+01 0.24295800573E+01
 0.27369204441E+01 0.31900229450E+01 0.38483924620E+01 0.47788195366E+01 0.60283518797E+01
 0.75904246665E+01 0.95223865293E+01 0.11962467200E+02 0.14803007388E+02 0.17710227983E+02
 0.20238320259E+02 0.21958774528E+02 0.22568536321E+02 0.21958810354E+02 0.20238384117E+02
 0.17710305221E+02 0.14803082940E+02 0.79833854569E+01 0.66160171507E+01 0.54120570793E+01
 0.44272349986E+01 0.36731969555E+01 0.31221091503E+01 0.27291321868E+01 0.24515307921E+01
 0.22588833175E+01 0.21347905545E+01 0.20732387454E+01 0.20732090838E+01 0.21347599760E+01
 0.22589150496E+01 0.24515728407E+01 0.27291267122E+01 0.31221025981E+01 0.36732410282E+01
 0.44272792171E+01 0.54120518721E+01 0.66160285002E+01 0.79834572546E+01 0.95223870110E+01
 0.11188684454E+02 0.12789710433E+02 0.14063080173E+02 0.14769789701E+02 0.14769807355E+02
 0.14063154472E+02 0.12789829335E+02 0.11188747330E+02 0.95223408588E+01 0.56546374581E+01
 0.47849128456E+01 0.40555119726E+01 0.34802054061E+01 0.30457735915E+01 0.27253859254E+01
 0.24910566972E+01 0.23214734923E+01 0.22043683436E+01 0.21347647549E+01 0.21115732675E+01
 0.21347724048E+01 0.22043778600E+01 0.23214786542E+01 0.24910554214E+01 0.27253852847E+01
 0.30457856173E+01 0.34802401428E+01 0.40555738602E+01 0.47849879231E+01 0.56547054865E+01
 0.66160409290E+01 0.75904394395E+01 0.85144154620E+01 0.93082047893E+01 0.98531012052E+01
 0.10047818190E+02 0.98531275968E+01 0.93082418061E+01 0.85144396090E+01 0.75904302151E+01
 0.66159961042E+01 0.42022057330E+01 0.36996683358E+01 0.32914339969E+01 0.29737242049E+01
 0.27326085499E+01 0.25517452222E+01 0.24176144184E+01 0.23214873511E+01 0.22588766448E+01
 0.22279111151E+01 0.22279352447E+01 0.22589083425E+01 0.23214729325E+01 0.24175733773E+01
 0.25517248164E+01 0.27326138184E+01 0.29737431103E+01 0.32914788420E+01 0.36997420597E+01
 0.42022649985E+01 0.47849822014E+01 0.54120585792E+01 0.60283695485E+01 0.65685972591E+01
 0.69698811865E+01 0.71836657614E+01 0.71836686256E+01 0.69698664966E+01 0.65685460670E+01
 0.60283206920E+01 0.54120442254E+01 0.47849649651E+01 0.33849410631E+01 0.31234137991E+01
 0.29161477277E+01 0.27572656011E+01 0.26384079622E+01 0.25517407426E+01 0.24910464524E+01
 0.24515562112E+01 0.24295739828E+01 0.24225594746E+01 0.24295800573E+01 0.24515615426E+01
 0.24910406484E+01 0.25517179640E+01 0.26383701713E+01 0.27572230011E+01 0.29161168118E+01
 0.31234053790E+01 0.33849598294E+01 0.36997374687E+01 0.40555590873E+01 0.44272656576E+01
 0.47788195366E+01 0.50693225621E+01 0.52612404639E+01 0.53283408456E+01 0.52612278902E+01
 0.50692955878E+01 0.47787772432E+01 0.44272114943E+01 0.40555027970E+01 0.36996943932E+01
 0.29851739380E+01 0.28795055009E+01 0.28047533504E+01 0.27572941249E+01 0.27326262485E+01
 0.27253783553E+01 0.27291302461E+01 0.27369259614E+01 0.27426417657E+01 0.27426475437E+01
 0.27369350841E+01 0.27291364481E+01 0.27253825918E+01 0.27326107895E+01 0.27572245633E+01
 0.28046365496E+01 0.28794118837E+01 0.29851583245E+01 0.31234092026E+01 0.32914818708E+01
 0.34802374499E+01 0.36732312923E+01 0.38483832078E+01 0.39821060507E+01 0.40546056128E+01
 0.40546071979E+01 0.39821018232E+01 0.38483678230E+01 0.36732136107E+01 0.34802164506E+01
 0.32914441064E+01 0.31233704018E+01 0.28669312335E+01 0.28794709902E+01 0.29161639487E+01
 0.29737726888E+01 0.30458008157E+01 0.31221088040E+01 0.31900182065E+01 0.32369698667E+01
 0.32537493691E+01 0.32369773432E+01 0.31900285114E+01 0.31221150269E+01 0.30457948238E+01
 0.29737488321E+01 0.29161223782E+01 0.28794145765E+01 0.28668689165E+01 0.28794145765E+01
 0.29161223782E+01 0.29737488321E+01 0.30457948238E+01 0.31221150269E+01 0.31900285114E+01
 0.32369773432E+01 0.32537493691E+01 0.32369698667E+01 0.31900182065E+01 0.31221088040E+01
 0.30458008157E+01 0.29737726888E+01 0.29161639487E+01 0.28794709902E+01 0.29851739380E+01
 0.31233704018E+01 0.32914441064E+01 0.34802164506E+01 0.36732136107E+01 0.38483678230E+01
 0.39821018232E+01 0.40546071979E+01 0.40546056128E+01 0.39821060507E+01 0.38483832078E+01
 0.36732312923E+01 0.34802374499E+01 0.32914818708E+01 0.31234092026E+01 0.29851583245E+01
 0.28794118837E+01 0.28046365496E+01 0.27572245633E+01 0.27326107895E+01 0.27253825918E+01
 0.27291364481E+01 0.27369350841E+01 0.27426475437E+01 0.27426417657E+01 0.27369259614E+01
 0.27291302461E+01 0.27253783553E+01 0.27326262485E+01 0.27572941249E+01 0.28047533504E+01
 0.28795055009E+01 0.33849410631E+01 0.36996943932E+01 0.40555027970E+01 0.44272114943E+01
 0.47787772432E+01 0.50692955878E+01 0.52612278902E+01 0.53283408456E+01 0.52612404639E+01
 0.50693225621E+01 0.47788195366E+01 0.44272656576E+01 0.40555590873E+01 0.36997374687E+01
 0.33849598294E+01 0.31234053790E+01 0.29161168118E+01 0.27572230011E+01 0.26383701713E+01
 0.25517179640E+01 0.24910406484E+01 0.24515615426E+01 0.24295800573E+01 0.24225594746E+01
 0.24295739828E+01 0.24515562112E+01 0.24910464524E+01 0.25517407426E+01 0.26384079622E+01
 0.27572656011E+01 0.29161477277E+01 0.31234137991E+01 0.42022057330E+01 0.47849649651E+01
 0.54120442254E+01 0.60283206920E+01 0.65685460670E+01 0.69698664966E+01 0.71836686256E+01
 0.71836657614E+01 0.69698811865E+01 0.65685972591E+01 0.60283695485E+01 0.54120585792E+01
 0.47849822014E+01 0.42022649985E+01 0.36997420597E+01 0.32914788420E+01 0.29737431103E+01
 0.27326138184E+01 0.25517248164E+01 0.24175733773E+01 0.23214729325E+01 0.22589083425E+01
 0.22279352447E+01 0.22279111151E+01 0.22588766448E+01 0.23214873511E+01 0.24176144184E+01
 0.25517452222E+01 0.27326085499E+01 0.29737242049E+01 0.32914339969E+01 0.36996683358E+01
 0.56546374581E+01 0.66159961042E+01 0.75904302151E+01 0.85144396090E+01 0.93082418061E+01
 0.98531275968E+01 0.10047818190E+02 0.98531012052E+01 0.93082047893E+01 0.85144154620E+01
 0.75904394395E+01 0.66160409290E+01 0.56547054865E+01 0.47849879231E+01 0.40555738602E+01
 0.34802401428E+01 0.30457856173E+01 0.27253852847E+01 0.24910554214E+01 0.23214786542E+01
 0.22043778600E+01 0.21347724048E+01 0.21115732675E+01 0.21347647549E+01 0.22043683436E+01
 0.23214734923E+01 0.24910566972E+01 0.27253859254E+01 0.30457735915E+01 0.34802054061E+01
 0.40555119726E+01 0.47849128456E+01 0.79833854569E+01 0.95223408588E+01 0.11188747330E+02
 0.12789829335E+02 0.14063154472E+02 0.14769807355E+02 0.14769789701E+02 0.14063080173E+02
 0.12789710433E+02 0.11188684454E+02 0.95223870110E+01 0.79834572546E+01 0.66160285002E+01
 0.54120518721E+01 0.44272792171E+01 0.36732410282E+01 0.31221025981E+01 0.27291267122E+01
 0.24515728407E+01 0.22589150496E+01 0.21347599760E+01 0.20732090838E+01 0.20732387454E+01
 0.21347905545E+01 0.22588833175E+01 0.24515307921E+01 0.27291321868E+01 0.31221091503E+01
 0.36731969555E+01 0.44272349986E+01 0.54120570793E+01 0.66160171507E+01 0.11962527580E+02
 0.14803082940E+02 0.17710305221E+02 0.20238384117E+02 0.21958810354E+02 0.22568536321E+02
 0.21958774528E+02 0.20238320259E+02 0.17710227983E+02 0.14803007388E+02 0.11962467200E+02
 0.95223865293E+01 0.75904246665E+01 0.60283518797E+01 0.47788195366E+01 0.38483924620E+01
 0.31900229450E+01 0.27369204441E+01 0.24295800573E+01 0.22279414701E+01 0.21115584946E+01
 0.20732143695E+01 0.21115690053E+01 0.22279563073E+01 0.24295902610E+01 0.27369170429E+01
 0.31900042449E+01 0.38483613163E+01 0.47787880442E+01 0.60283331016E+01 0.75904275161E+01
 0.95224221929E+01 0.19192278075E+02 0.23875762960E+02 0.28205476799E+02 0.31530203288E+02
 0.33334176460E+02 0.33334211256E+02 0.31530250895E+02 0.28205449579E+02 0.23875662278E+02
 0.19192167271E+02 0.14803024077E+02 0.11188692140E+02 0.85144107193E+01 0.65685962801E+01
 0.50693261741E+01 0.39821040009E+01 0.32369726004E+01 0.27426495936E+01 0.24225653480E+01
 0.22279120941E+01 0.21347600122E+01 0.21347828684E+01 0.22279491029E+01 0.24225769492E+01
 0.27426451952E+01 0.32369761247E+01 0.39820984213E+01 0.50692968109E+01 0.65685683507E+01
 0.85144230118E+01 0.11188746496E+02 0.14803106778E+02 0.30677447091E+02 0.37272874561E+02
 0.42778290549E+02 0.46429613050E+02 0.47708131363E+02 0.46429652630E+02 0.42778348983E+02
 0.37272919062E+02 0.30677451692E+02 0.23875667021E+02 0.17710269692E+02 0.12789722862E+02
 0.93081778528E+01 0.69698869082E+01 0.52612821734E+01 0.40546083057E+01 0.32537132261E+01
 0.27426444586E+01 0.24296156923E+01 0.22588823665E+01 0.22043414071E+01 0.22588957463E+01
 0.24296319704E+01 0.27426499380E+01 0.32537022230E+01 0.40545871832E+01 0.52612705115E+01
 0.69699014978E+01 0.93082284423E+01 0.12789796009E+02 0.17710340365E+02 0.23875708878E+02
 0.46441856868E+02 0.54618217782E+02 0.60772235141E+02 0.64081683418E+02 0.64081573006E+02
 0.60772173689E+02 0.54618468738E+02 0.46442118038E+02 0.37272852675E+02 0.28205387935E+02
 0.20238374699E+02 0.14063134131E+02 0.98530348179E+01 0.71836050959E+01 0.53284083635E+01
 0.40546708923E+01 0.32369034795E+01 0.27368622670E+01 0.24516214677E+01 0.23215480166E+01
 0.23214071051E+01 0.24514768337E+01 0.27369953772E+01 0.32370377693E+01 0.40545207959E+01
 0.53282481349E+01 0.71837371743E+01 0.98532204064E+01 0.14063088515E+02 0.20238313251E+02
 0.28205524199E+02 0.37272904761E+02 0.65808385103E+02 0.75074530338E+02 0.81231782216E+02
 0.83395376339E+02 0.81231827874E+02 0.75074607337E+02 0.65808474012E+02 0.54618563230E+02
 0.42778307273E+02 0.31530085274E+02 0.21958774528E+02 0.14769938152E+02 0.10047803417E+02
 0.71835020249E+01 0.52612278902E+01 0.39822600093E+01 0.31900126401E+01 0.27289666742E+01
 0.24910464524E+01 0.24177695757E+01 0.24910419242E+01 0.27289588790E+01 0.31900042449E+01
 0.39822545576E+01 0.52612288021E+01 0.71835099081E+01 0.10047815758E+02 0.14769945980E+02
 0.21958768900E+02 0.31530054439E+02 0.42778248438E+02 0.54618482480E+02 0.87909412357E+02
 0.97729830927E+02 0.10309337685E+03 0.10309368299E+03 0.97730110620E+02 0.87909045894E+02
 0.75074600434E+02 0.60772407859E+02 0.46429820412E+02 0.33334038731E+02 0.22568380486E+02
 0.14769987566E+02 0.98532953794E+01 0.69696929922E+01 0.50691266745E+01 0.38485382985E+01
 0.31222765866E+01 0.27252078798E+01 0.25515740907E+01 0.25519187265E+01 0.27255537080E+01
 0.31219289389E+01 0.38481815866E+01 0.50694693362E+01 0.69700692803E+01 0.98529862365E+01
 0.14769617318E+02 0.22568633216E+02 0.33334293329E+02 0.46429434344E+02 0.60772044210E+02
 0.75074929391E+02 0.11179928996E+03 0.12141103979E+03 0.12484371982E+03 0.12141097027E+03
 0.11179917980E+03 0.97729942838E+02 0.81231512341E+02 0.64081639394E+02 0.47708488605E+02
 0.33334181203E+02 0.21958494821E+02 0.14063166901E+02 0.93085721124E+01 0.65685517888E+01
 0.47784617099E+01 0.36732163036E+01 0.30461219155E+01 0.27326289414E+01 0.26380924288E+01
 0.27326142716E+01 0.30461038978E+01 0.36732093843E+01 0.47784725108E+01 0.65685730934E+01
 0.93085856851E+01 0.14063154902E+02 0.21958453366E+02 0.33334125546E+02 0.47708449773E+02
 0.64081646172E+02 0.81231576076E+02 0.97730049624E+02 0.13592873221E+03 0.14405308321E+03
 0.14405253650E+03 0.13592813810E+03 0.12141124412E+03 0.10309378906E+03 0.83394941608E+02
 0.64081343179E+02 0.46429886902E+02 0.31530481883E+02 0.20238098318E+02 0.12789543054E+02
 0.85147134612E+01 0.60286002659E+01 0.44269387728E+01 0.34799399054E+01 0.29740465410E+01
 0.27575706700E+01 0.27569906182E+01 0.29734446309E+01 0.34804792583E+01 0.44275212796E+01
 0.60280711965E+01 0.85141444168E+01 0.12790069861E+02 0.20238653491E+02 0.31529941466E+02
 0.46429328275E+02 0.64081920024E+02 0.83395625183E+02 0.10309344406E+03 0.12141084832E+03
 0.15753214653E+03 0.16241447797E+03 0.15753203558E+03 0.14405236559E+03 0.12484403535E+03
 0.10309398940E+03 0.81231782216E+02 0.60771723991E+02 0.42778248840E+02 0.28205916819E+02
 0.17710305221E+02 0.11188290139E+02 0.75904154421E+01 0.54124832660E+01 0.40555027970E+01
 0.32909966512E+01 0.29161583823E+01 0.28051954198E+01 0.29161477277E+01 0.32909835129E+01
 0.40554971996E+01 0.54124894128E+01 0.75904275161E+01 0.11188296991E+02 0.17710298656E+02
 0.28205902574E+02 0.42778248438E+02 0.60771767231E+02 0.81231891609E+02 0.10309416268E+03
 0.12484424246E+03 0.14405255252E+03 0.17283701767E+03 0.17283758673E+03 0.16241437391E+03
 0.14405246865E+03 0.12141069909E+03 0.97730339414E+02 0.75075031922E+02 0.54617943466E+02
 0.37272533857E+02 0.23876098922E+02 0.14803435591E+02 0.95220125834E+01 0.66156554000E+01
 0.47852999476E+01 0.37000339666E+01 0.31230323906E+01 0.28791302860E+01 0.28798435121E+01
 0.31237556339E+01 0.36993333534E+01 0.47845721415E+01 0.66163454261E+01 0.95227509499E+01
 0.14802770817E+02 0.23875368174E+02 0.37273179078E+02 0.54618662305E+02 0.75074420904E+02
 0.97729708919E+02 0.12141146288E+03 0.14405333799E+03 0.16241392973E+03 0.17283701767E+03
 0.16241392973E+03 0.14405333799E+03 0.12141146288E+03 0.97729708919E+02 0.75074420904E+02
 0.54618662305E+02 0.37273179078E+02 0.23875368174E+02 0.14802770817E+02 0.95227509499E+01
 0.66163454261E+01 0.47845721415E+01 0.36993333534E+01 0.31237556339E+01 0.28798435121E+01
 0.28791302860E+01 0.31230323906E+01 0.37000339666E+01 0.47852999476E+01 0.66156554000E+01
 0.95220125834E+01 0.14803435591E+02 0.23876098922E+02 0.37272533857E+02 0.54617943466E+02
 0.75075031922E+02 0.97730339414E+02 0.12141069909E+03 0.14405246865E+03 0.16241437391E+03
 0.17283758673E+03 0.16241427759E+03 0.14834937055E+03 0.12837435536E+03 0.10586431950E+03
 0.83356137589E+02 0.62374717401E+02 0.43945591591E+02 0.28994484419E+02 0.18183734048E+02
 0.11436692660E+02 0.77192455473E+01 0.54935423036E+01 0.41055947732E+01 0.33239363280E+01
 0.29412752546E+01 0.28281712018E+01 0.29412986455E+01 0.33239486757E+01 0.41055784878E+01
 0.54935169470E+01 0.77192356968E+01 0.11436699064E+02 0.18183745435E+02 0.28994491590E+02
 0.43945591918E+02 0.62374704427E+02 0.83356086955E+02 0.10586417184E+03 0.12837405652E+03
 0.14834897933E+03 0.16241398769E+03 0.16751707681E+03 0.14405329467E+03 0.12837406538E+03
 0.10874751309E+03 0.87838245138E+02 0.67499124152E+02 0.48976572544E+02 0.33312926365E+02
 0.21363855791E+02 0.13411575785E+02 0.88297545174E+01 0.62186139077E+01 0.45454112063E+01
 0.35550038902E+01 0.30261186187E+01 0.28011230610E+01 0.28017524133E+01 0.30267705582E+01
 0.35544128724E+01 0.45447664764E+01 0.62191764600E+01 0.88303736839E+01 0.13411015871E+02
 0.21363257614E+02 0.33313506477E+02 0.48977185024E+02 0.67498528246E+02 0.87837516136E+02
 0.10874781930E+03 0.12837433272E+03 0.14405247009E+03 0.15287094836E+03 0.15287162057E+03
 0.12141147300E+03 0.10586385893E+03 0.87837598371E+02 0.69291813132E+02 0.51681366923E+02
 0.36194442985E+02 0.23834960621E+02 0.15149244734E+02 0.98712248569E+01 0.68910950258E+01
 0.49804148190E+01 0.37982144525E+01 0.31295972660E+01 0.27972733339E+01 0.26975200165E+01
 0.27972873415E+01 0.31296234103E+01 0.37982330065E+01 0.49804034485E+01 0.68910638299E+01
 0.98712126089E+01 0.15149271951E+02 0.23835009775E+02 0.36194478532E+02 0.51681359598E+02
 0.69291741478E+02 0.87837458937E+02 0.10586368845E+03 0.12141132834E+03 0.13212916224E+03
 0.13597538490E+03 0.13212924072E+03 0.97730247606E+02 0.83356332933E+02 0.67498630257E+02
 0.51680815064E+02 0.37205889740E+02 0.25186061420E+02 0.16343578675E+02 0.10694791422E+02
 0.74365538966E+01 0.53665219368E+01 0.40308592466E+01 0.32391139994E+01 0.28104892135E+01
 0.26243046510E+01 0.26239003926E+01 0.28100909475E+01 0.32395380209E+01 0.40312819547E+01
 0.53661045342E+01 0.74361039191E+01 0.10695172002E+02 0.16344029272E+02 0.25185745588E+02
 0.37205544345E+02 0.51681229955E+02 0.67499034638E+02 0.83355914975E+02 0.97729768896E+02
 0.10884739481E+03 0.11496644337E+03 0.11496610284E+03 0.10884711298E+03 0.75074765465E+02
 0.62375382348E+02 0.48976865466E+02 0.36194238258E+02 0.25185862779E+02 0.16769584946E+02
 0.11152957913E+02 0.77955697432E+01 0.56551509687E+01 0.42254621326E+01 0.33423730164E+01
 0.28334969585E+01 0.25741689112E+01 0.24950159038E+01 0.25741779125E+01 0.28335103014E+01
 0.33423809990E+01 0.42254549433E+01 0.56551290561E+01 0.77955448261E+01 0.11152949261E+02
 0.16769610152E+02 0.25185929714E+02 0.36194334100E+02 0.48976954995E+02 0.62375431713E+02
 0.75074766650E+02 0.85666764500E+02 0.92758675026E+02 0.95262382513E+02 0.92758698331E+02
 0.85666790437E+02 0.54618228460E+02 0.43945686385E+02 0.33313315108E+02 0.23835220829E+02
 0.16343682048E+02 0.11153049770E+02 0.79222465112E+01 0.58097891630E+01 0.43542807859E+01
 0.34227462010E+01 0.28594031953E+01 0.25427542085E+01 0.24004997593E+01 0.24006939072E+01
 0.25429558417E+01 0.28592249747E+01 0.34225604155E+01 0.43544680029E+01 0.58099754229E+01
 0.79220438752E+01 0.11152828835E+02 0.16343840257E+02 0.23835413345E+02 0.33313174663E+02
 0.43945569497E+02 0.54618502174E+02 0.64125370324E+02 0.71299598118E+02 0.75170506665E+02
 0.75170650307E+02 0.71299684452E+02 0.64125077828E+02 0.37272763231E+02 0.28994020353E+02
 0.21363632672E+02 0.15149245896E+02 0.10694917309E+02 0.77957709845E+01 0.58099526029E+01
 0.43996685680E+01 0.34665902739E+01 0.28788322526E+01 0.25254597695E+01 0.23361228466E+01
 0.22762784935E+01 0.23361248352E+01 0.25254627114E+01 0.28788386741E+01 0.34666047458E+01
 0.43996873780E+01 0.58099587108E+01 0.77957419652E+01 0.10694842238E+02 0.15149146912E+02
 0.21363556275E+02 0.28994018906E+02 0.37272849879E+02 0.45215155516E+02 0.51810160689E+02
 0.56176907438E+02 0.57705666911E+02 0.56176839867E+02 0.51810038683E+02 0.45215020997E+02
 0.23875690796E+02 0.18183710821E+02 0.13411295995E+02 0.98708896113E+01 0.74363378324E+01
 0.56551310379E+01 0.43543915181E+01 0.34666809999E+01 0.28860875269E+01 0.25178096394E+01
 0.22984783196E+01 0.21950264654E+01 0.21949836571E+01 0.22984260641E+01 0.25178331278E+01
 0.28861266242E+01 0.34666644018E+01 0.43543739114E+01 0.56551609958E+01 0.74363337311E+01
 0.98707853868E+01 0.13411185888E+02 0.18183684052E+02 0.23875688987E+02 0.29843419414E+02
 0.35289067091E+02 0.39436921694E+02 0.41678111730E+02 0.41678059444E+02 0.39436848763E+02
 0.35289075118E+02 0.29843457914E+02 0.14803116096E+02 0.11437156309E+02 0.88300456791E+01
 0.68910905544E+01 0.53663240141E+01 0.42252608349E+01 0.34226525835E+01 0.28788312674E+01
 0.25178302884E+01 0.22860781955E+01 0.21544952812E+01 0.21114982257E+01 0.21544764463E+01
 0.22860512627E+01 0.25178146473E+01 0.28788386160E+01 0.34226693021E+01 0.42252698883E+01
 0.53663267962E+01 0.68911052663E+01 0.88300540838E+01 0.11437118862E+02 0.14803018673E+02
 0.18686715081E+02 0.22602350526E+02 0.25963567992E+02 0.28231161667E+02 0.29031407197E+02
 0.28231162583E+02 0.25963601856E+02 0.22602439311E+02 0.18686837213E+02 0.95223992974E+01
 0.77192591704E+01 0.62189203616E+01 0.49807561013E+01 0.40310448122E+01 0.33423837031E+01
 0.28593209064E+01 0.25253774043E+01 0.22984497800E+01 0.21545077278E+01 0.20837066672E+01
 0.20836774750E+01 0.21544706610E+01 0.22984633001E+01 0.25254034996E+01 0.28593147199E+01
 0.33423849351E+01 0.40310996951E+01 0.49808121667E+01 0.62189213677E+01 0.77192358036E+01
 0.95223869678E+01 0.11695526871E+02 0.14087337972E+02 0.16376913338E+02 0.18183674127E+02
 0.19180410854E+02 0.19180413761E+02 0.18183715252E+02 0.16377010800E+02 0.14087429977E+02
 0.11695560889E+02 0.66159828300E+01 0.54930789347E+01 0.45451353012E+01 0.37982153823E+01
 0.32392931367E+01 0.28336988965E+01 0.25428648623E+01 0.23361226144E+01 0.21949889899E+01
 0.21114999076E+01 0.20837070542E+01 0.21115051120E+01 0.21949956134E+01 0.23361299160E+01
 0.25428795094E+01 0.28337297370E+01 0.32393319021E+01 0.37982433452E+01 0.45451454831E+01
 0.54930902416E+01 0.66160245187E+01 0.78473748415E+01 0.91617445350E+01 0.10492842130E+02
 0.11667896995E+02 0.12481341368E+02 0.12772568588E+02 0.12481400909E+02 0.11667972766E+02
 0.10492880747E+02 0.91617227633E+01 0.78473189573E+01 0.47849039394E+01 0.41055810962E+01
 0.35547154446E+01 0.31292529900E+01 0.28102823248E+01 0.25741585310E+01 0.24006018362E+01
 0.22763601891E+01 0.21949928325E+01 0.21544653478E+01 0.21544905453E+01 0.21950240585E+01
 0.22763465679E+01 0.24005779143E+01 0.25741714430E+01 0.28103081454E+01 0.31292570703E+01
 0.35547350786E+01 0.41056586295E+01 0.47849959943E+01 0.55697826791E+01 0.64074339742E+01
 0.72217428020E+01 0.79367960153E+01 0.84845044501E+01 0.87851857716E+01 0.87852075139E+01
 0.84845338908E+01 0.79367908502E+01 0.72217188474E+01 0.64074124417E+01 0.55697335260E+01
 0.36996785821E+01 0.33243920733E+01 0.30264100736E+01 0.27972770087E+01 0.26241066779E+01
 0.24948067027E+01 0.24006005828E+01 0.23361319960E+01 0.22984466628E+01 0.22860433593E+01
 0.22984511466E+01 0.23361363803E+01 0.24005889624E+01 0.24947685967E+01 0.26240607025E+01
 0.27972647379E+01 0.30264499015E+01 0.33244592592E+01 0.36997390534E+01 0.41497049868E+01
 0.46552374754E+01 0.51791939064E+01 0.56705474044E+01 0.60733794704E+01 0.63378841858E+01
 0.64300488534E+01 0.63378549308E+01 0.60733407784E+01 0.56705170782E+01 0.51791745867E+01
 0.46552158619E+01 0.41496665856E+01 0.31234141582E+01 0.29412784266E+01 0.28014192754E+01
 0.26978716872E+01 0.26240961351E+01 0.25741781482E+01 0.25428633134E+01 0.25253907346E+01
 0.25178147651E+01 0.25178166428E+01 0.25253932602E+01 0.25428603187E+01 0.25741617356E+01
 0.26240624050E+01 0.26978229790E+01 0.28013704227E+01 0.29412488360E+01 0.31234094410E+01
 0.33504434486E+01 0.36179187376E+01 0.39114304883E+01 0.42061737444E+01 0.44700047145E+01
 0.46694666387E+01 0.47769696880E+01 0.47769647361E+01 0.46694473208E+01 0.44699672396E+01
 0.42061271160E+01 0.39113884619E+01 0.36178893134E+01 0.33504287623E+01 0.28794933212E+01
 0.28277075874E+01 0.28014639393E+01 0.27972883531E+01 0.28102824899E+01 0.28337119938E+01
 0.28593230597E+01 0.28788385237E+01 0.28861015539E+01 0.28788400524E+01 0.28593317303E+01
 0.28337298189E+01 0.28102921054E+01 0.27972580282E+01 0.28013770446E+01 0.28275919982E+01
 0.28794076521E+01 0.29589306859E+01 0.30659278687E+01 0.31961130598E+01 0.33396391998E+01
 0.34810478035E+01 0.36014509939E+01 0.36825692585E+01 0.37112056736E+01 0.36825640592E+01
 0.36014443706E+01 0.34810392375E+01 0.33396190407E+01 0.31960798893E+01 0.30659029756E+01
 0.29589526701E+01 0.28794672566E+01 0.29412898770E+01 0.30264769104E+01 0.31292741961E+01
 0.32393363048E+01 0.33423755273E+01 0.34226572901E+01 0.34666815032E+01 0.34666787499E+01
 0.34226631121E+01 0.33423996171E+01 0.32393554091E+01 0.31292622430E+01 0.30264437619E+01
 0.29412533411E+01 0.28794187538E+01 0.28429590949E+01 0.28315130711E+01 0.28430057814E+01
 0.28733813579E+01 0.29159942807E+01 0.29616498552E+01 0.29999552471E+01 0.30217710728E+01
 0.30217605541E+01 0.29999413867E+01 0.29616537910E+01 0.29160079104E+01 0.28733949707E+01
 0.28430345493E+01 0.28315704585E+01 0.28430245473E+01 0.31233779157E+01 0.33244073780E+01
 0.35547042181E+01 0.37982339115E+01 0.40310842780E+01 0.42252486992E+01 0.43543745693E+01
 0.43996917692E+01 0.43543948064E+01 0.42252649418E+01 0.40310874324E+01 0.37982470398E+01
 0.35547464231E+01 0.33244622162E+01 0.31234076295E+01 0.29589346260E+01 0.28315195070E+01
 0.27377032703E+01 0.26725724600E+01 0.26309328053E+01 0.26074213401E+01 0.25964303421E+01
 0.25925768375E+01 0.25918046719E+01 0.25925796507E+01 0.25964229508E+01 0.26074091493E+01
 0.26309472460E+01 0.26726333000E+01 0.27377934535E+01 0.28315943587E+01 0.29589585542E+01
 0.36996912673E+01 0.41055834617E+01 0.45450642035E+01 0.49807536065E+01 0.53662990530E+01
 0.56551310936E+01 0.58098844073E+01 0.58098852213E+01 0.56551414094E+01 0.53663305934E+01
 0.49808034399E+01 0.45451247797E+01 0.41056476984E+01 0.36997425576E+01 0.33504449613E+01
 0.30659197342E+01 0.28430000527E+01 0.26725760734E+01 0.25444626291E+01 0.24502802311E+01
 0.23841727403E+01 0.23422520761E+01 0.23219596598E+01 0.23219478389E+01 0.23422334307E+01
 0.23841720933E+01 0.24502962887E+01 0.25444819332E+01 0.26726003924E+01 0.28430296862E+01