   1   1   0   0
  0.2276607E+02  0.3181273E-09  0.3181273E-09  0.3181273E-09  0.5000000E-15
  1.000000000000000E-004
  CAR 
 unknown system                          
     23.97734404     -2.78253253  301      5.05003208      1.00000000
     -2.783  0.0000E+00  0.0000E+00
     -2.693  0.0000E+00  0.0000E+00
     -2.604  0.0000E+00  0.0000E+00
     -2.515  0.0000E+00  0.0000E+00
     -2.426 -0.3268E-31 -0.2915E-32
     -2.337 -0.3855E-28 -0.3442E-29
     -2.247 -0.3047E-25 -0.2721E-26
     -2.158 -0.1611E-22 -0.1440E-23
     -2.069 -0.5698E-20 -0.5097E-21
     -1.980 -0.1346E-17 -0.1206E-18
     -1.891 -0.2056E-15 -0.1846E-16
     -1.801 -0.2149E-13 -0.1936E-14
     -1.712 -0.1493E-11 -0.1351E-12
     -1.623 -0.6866E-10 -0.6260E-11
     -1.534 -0.2081E-08 -0.1919E-09
     -1.445 -0.4126E-07 -0.3872E-08
     -1.355 -0.5284E-06 -0.5101E-07
     -1.266 -0.4277E-05 -0.4325E-06
     -1.177 -0.2089E-04 -0.2296E-05
     -1.088 -0.5418E-04 -0.7128E-05
     -0.999 -0.3264E-04 -0.1004E-04
     -0.909  0.2046E-03  0.8208E-05
     -0.820  0.6427E-03  0.6554E-04
     -0.731  0.1078E-02  0.1617E-03
     -0.642  0.1724E-02  0.3155E-03
     -0.553  0.2736E-02  0.5595E-03
     -0.463  0.3373E-02  0.8604E-03
     -0.374  0.3376E-02  0.1162E-02
     -0.285  0.3264E-02  0.1453E-02
     -0.196  0.2845E-02  0.1706E-02
     -0.107  0.2042E-02  0.1889E-02
     -0.017  0.3275E-02  0.2181E-02
      0.072  0.1292E-01  0.3334E-02
      0.161  0.3719E-01  0.6650E-02
      0.250  0.7601E-01  0.1343E-01
      0.339  0.1228E+00  0.2439E-01
      0.429  0.1624E+00  0.3887E-01
      0.518  0.1752E+00  0.5450E-01
      0.607  0.1598E+00  0.6875E-01
      0.696  0.1377E+00  0.8104E-01
      0.785  0.1300E+00  0.9263E-01
      0.875  0.1370E+00  0.1049E+00
      0.964  0.1476E+00  0.1180E+00
      1.053  0.1614E+00  0.1324E+00
      1.142  0.1826E+00  0.1487E+00
      1.231  0.1961E+00  0.1662E+00
      1.321  0.1868E+00  0.1829E+00
      1.410  0.1683E+00  0.1979E+00
      1.499  0.1630E+00  0.2124E+00
      1.588  0.1699E+00  0.2276E+00
      1.677  0.1749E+00  0.2432E+00
      1.767  0.1717E+00  0.2585E+00
      1.856  0.1640E+00  0.2731E+00
      1.945  0.1641E+00  0.2877E+00
      2.034  0.1813E+00  0.3039E+00
      2.123  0.1924E+00  0.3211E+00
      2.213  0.1578E+00  0.3352E+00
      2.302  0.8416E-01  0.3427E+00
      2.391  0.2169E-01  0.3446E+00
      2.480 -0.2216E-02  0.3444E+00
      2.569 -0.3680E-03  0.3444E+00
      2.659  0.7701E-02  0.3450E+00
      2.748  0.1243E-01  0.3462E+00
      2.837  0.1186E-01  0.3472E+00
      2.926  0.9660E-02  0.3481E+00
      3.015  0.8623E-02  0.3488E+00
      3.105  0.7328E-02  0.3495E+00
      3.194  0.5273E-02  0.3500E+00
      3.283  0.3841E-02  0.3503E+00
      3.372  0.4066E-02  0.3507E+00
      3.461  0.6359E-02  0.3512E+00
      3.551  0.9646E-02  0.3521E+00
      3.640  0.1226E-01  0.3532E+00
      3.729  0.1391E-01  0.3544E+00
      3.818  0.1348E-01  0.3556E+00
      3.907  0.9142E-02  0.3565E+00
      3.997  0.4056E-02  0.3568E+00
      4.086  0.3756E-02  0.3572E+00
      4.175  0.7201E-02  0.3578E+00
      4.264  0.8991E-02  0.3586E+00
      4.353  0.9085E-02  0.3594E+00
      4.443  0.1098E-01  0.3604E+00
      4.532  0.1304E-01  0.3615E+00
      4.621  0.1134E-01  0.3626E+00
      4.710  0.7670E-02  0.3632E+00
      4.799  0.7281E-02  0.3639E+00
      4.889  0.1024E-01  0.3648E+00
      4.978  0.1186E-01  0.3659E+00
      5.067  0.1093E-01  0.3668E+00
      5.156  0.9468E-02  0.3677E+00
      5.245  0.7870E-02  0.3684E+00
      5.335  0.6282E-02  0.3689E+00
      5.424  0.6011E-02  0.3695E+00
      5.513  0.8712E-02  0.3703E+00
      5.602  0.1465E-01  0.3716E+00
      5.691  0.1904E-01  0.3733E+00
      5.781  0.1737E-01  0.3748E+00
      5.870  0.1328E-01  0.3760E+00
      5.959  0.1075E-01  0.3770E+00
      6.048  0.8122E-02  0.3777E+00
      6.137  0.5992E-02  0.3782E+00
      6.227  0.7660E-02  0.3789E+00
      6.316  0.1070E-01  0.3799E+00
      6.405  0.9412E-02  0.3807E+00
      6.494  0.5465E-02  0.3812E+00
      6.583  0.6268E-02  0.3817E+00
      6.673  0.1226E-01  0.3828E+00
      6.762  0.1536E-01  0.3842E+00
      6.851  0.1227E-01  0.3853E+00
      6.940  0.8065E-02  0.3860E+00
      7.029  0.7219E-02  0.3867E+00
      7.119  0.1056E-01  0.3876E+00
      7.208  0.1431E-01  0.3889E+00
      7.297  0.1304E-01  0.3900E+00
      7.386  0.9651E-02  0.3909E+00
      7.475  0.1066E-01  0.3919E+00
      7.565  0.1381E-01  0.3931E+00
      7.654  0.1356E-01  0.3943E+00
      7.743  0.1085E-01  0.3953E+00
      7.832  0.9395E-02  0.3961E+00
      7.921  0.9923E-02  0.3970E+00
      8.011  0.1081E-01  0.3980E+00
      8.100  0.1241E-01  0.3991E+00
      8.189  0.1608E-01  0.4005E+00
      8.278  0.1892E-01  0.4022E+00
      8.367  0.1795E-01  0.4038E+00
      8.457  0.1559E-01  0.4052E+00
      8.546  0.1291E-01  0.4063E+00
      8.635  0.7938E-02  0.4070E+00
      8.724  0.4204E-02  0.4074E+00
      8.813  0.7035E-02  0.4080E+00
      8.903  0.1303E-01  0.4092E+00
      8.992  0.1492E-01  0.4105E+00
      9.081  0.1296E-01  0.4117E+00
      9.170  0.1199E-01  0.4128E+00
      9.259  0.1270E-01  0.4139E+00
      9.349  0.1218E-01  0.4150E+00
      9.438  0.9182E-02  0.4158E+00
      9.527  0.6190E-02  0.4163E+00
      9.616  0.6630E-02  0.4169E+00
      9.705  0.1091E-01  0.4179E+00
      9.795  0.1639E-01  0.4194E+00
      9.884  0.1943E-01  0.4211E+00
      9.973  0.1666E-01  0.4226E+00
     10.062  0.1090E-01  0.4236E+00
     10.151  0.1191E-01  0.4246E+00
     10.241  0.2143E-01  0.4265E+00
     10.330  0.2722E-01  0.4290E+00
     10.419  0.2060E-01  0.4308E+00
     10.508  0.8640E-02  0.4316E+00
     10.597  0.2499E-02  0.4318E+00
     10.687  0.3881E-02  0.4321E+00
     10.776  0.7831E-02  0.4328E+00
     10.865  0.1133E-01  0.4339E+00
     10.954  0.1536E-01  0.4352E+00
     11.043  0.2014E-01  0.4370E+00
     11.133  0.2246E-01  0.4390E+00
     11.222  0.2120E-01  0.4409E+00
     11.311  0.1963E-01  0.4427E+00
     11.400  0.1927E-01  0.4444E+00
     11.489  0.1766E-01  0.4460E+00
     11.579  0.1390E-01  0.4472E+00
     11.668  0.1047E-01  0.4481E+00
     11.757  0.8206E-02  0.4489E+00
     11.846  0.8108E-02  0.4496E+00
     11.935  0.1346E-01  0.4508E+00
     12.025  0.2160E-01  0.4527E+00
     12.114  0.2461E-01  0.4549E+00
     12.203  0.2019E-01  0.4567E+00
     12.292  0.1277E-01  0.4579E+00
     12.381  0.8399E-02  0.4586E+00
     12.471  0.1041E-01  0.4595E+00
     12.560  0.1663E-01  0.4610E+00
     12.649  0.2271E-01  0.4630E+00
     12.738  0.2540E-01  0.4653E+00
     12.827  0.2306E-01  0.4674E+00
     12.917  0.1828E-01  0.4690E+00
     13.006  0.1584E-01  0.4704E+00
     13.095  0.1603E-01  0.4718E+00
     13.184  0.1555E-01  0.4732E+00
     13.273  0.1310E-01  0.4744E+00
     13.363  0.1074E-01  0.4753E+00
     13.452  0.1278E-01  0.4765E+00
     13.541  0.2042E-01  0.4783E+00
     13.630  0.2781E-01  0.4808E+00
     13.719  0.2801E-01  0.4833E+00
     13.809  0.2186E-01  0.4852E+00
     13.898  0.1676E-01  0.4867E+00
     13.987  0.1658E-01  0.4882E+00
     14.076  0.1874E-01  0.4899E+00
     14.165  0.1927E-01  0.4916E+00
     14.255  0.1860E-01  0.4933E+00
     14.344  0.1918E-01  0.4950E+00
     14.433  0.1839E-01  0.4966E+00
     14.522  0.1475E-01  0.4979E+00
     14.611  0.1473E-01  0.4992E+00
     14.701  0.2129E-01  0.5011E+00
     14.790  0.2704E-01  0.5035E+00
     14.879  0.2628E-01  0.5059E+00
     14.968  0.2189E-01  0.5078E+00
     15.057  0.1889E-01  0.5095E+00
     15.147  0.2016E-01  0.5113E+00
     15.236  0.2579E-01  0.5136E+00
     15.325  0.3057E-01  0.5164E+00
     15.414  0.2702E-01  0.5188E+00
     15.503  0.1744E-01  0.5203E+00
     15.593  0.1258E-01  0.5214E+00
     15.682  0.1538E-01  0.5228E+00
     15.771  0.1988E-01  0.5246E+00
     15.860  0.2232E-01  0.5266E+00
     15.949  0.2300E-01  0.5286E+00
     16.039  0.2115E-01  0.5305E+00
     16.128  0.1580E-01  0.5319E+00
     16.217  0.1027E-01  0.5328E+00
     16.306  0.8569E-02  0.5336E+00
     16.395  0.1040E-01  0.5345E+00
     16.485  0.1486E-01  0.5359E+00
     16.574  0.2131E-01  0.5378E+00
     16.663  0.2577E-01  0.5401E+00
     16.752  0.2468E-01  0.5423E+00
     16.841  0.1955E-01  0.5440E+00
     16.931  0.1504E-01  0.5453E+00
     17.020  0.1427E-01  0.5466E+00
     17.109  0.1634E-01  0.5481E+00
     17.198  0.1777E-01  0.5497E+00
     17.287  0.1637E-01  0.5511E+00
     17.377  0.1355E-01  0.5523E+00
     17.466  0.1091E-01  0.5533E+00
     17.555  0.8809E-02  0.5541E+00
     17.644  0.1044E-01  0.5550E+00
     17.733  0.1794E-01  0.5566E+00
     17.823  0.2458E-01  0.5588E+00
     17.912  0.2275E-01  0.5608E+00
     18.001  0.1507E-01  0.5622E+00
     18.090  0.9404E-02  0.5630E+00
     18.179  0.1027E-01  0.5639E+00
     18.269  0.1634E-01  0.5654E+00
     18.358  0.2100E-01  0.5673E+00
     18.447  0.2031E-01  0.5691E+00
     18.536  0.1824E-01  0.5707E+00
     18.625  0.1733E-01  0.5723E+00
     18.715  0.1434E-01  0.5735E+00
     18.804  0.9389E-02  0.5744E+00
     18.893  0.6725E-02  0.5750E+00
     18.982  0.6843E-02  0.5756E+00
     19.071  0.6535E-02  0.5762E+00
     19.161  0.4738E-02  0.5766E+00
     19.250  0.3539E-02  0.5769E+00
     19.339  0.5788E-02  0.5774E+00
     19.428  0.1267E-01  0.5786E+00
     19.517  0.1956E-01  0.5803E+00
     19.607  0.1854E-01  0.5820E+00
     19.696  0.9877E-02  0.5828E+00
     19.785  0.3689E-02  0.5832E+00
     19.874  0.7404E-02  0.5838E+00
     19.963  0.1697E-01  0.5853E+00
     20.053  0.2289E-01  0.5874E+00
     20.142  0.2184E-01  0.5893E+00
     20.231  0.1736E-01  0.5909E+00
     20.320  0.1245E-01  0.5920E+00
     20.409  0.8158E-02  0.5927E+00
     20.499  0.5600E-02  0.5932E+00
     20.588  0.4946E-02  0.5937E+00
     20.677  0.4650E-02  0.5941E+00
     20.766  0.4082E-02  0.5944E+00
     20.855  0.4575E-02  0.5948E+00
     20.945  0.5852E-02  0.5954E+00
     21.034  0.5707E-02  0.5959E+00
     21.123  0.4749E-02  0.5963E+00
     21.212  0.5366E-02  0.5968E+00
     21.301  0.6447E-02  0.5973E+00
     21.391  0.5845E-02  0.5979E+00
     21.480  0.4742E-02  0.5983E+00
     21.569  0.4015E-02  0.5987E+00
     21.658  0.2723E-02  0.5989E+00
     21.747  0.1860E-02  0.5991E+00
     21.837  0.2725E-02  0.5993E+00
     21.926  0.3698E-02  0.5996E+00
     22.015  0.2961E-02  0.5999E+00
     22.104  0.1275E-02  0.6000E+00
     22.193  0.1491E-03  0.6000E+00
     22.283 -0.1442E-03  0.6000E+00
     22.372 -0.9289E-04  0.6000E+00
     22.461 -0.2790E-04  0.6000E+00
     22.550 -0.5043E-05  0.6000E+00
     22.639 -0.5812E-06  0.6000E+00
     22.729 -0.4361E-07  0.6000E+00
     22.818 -0.2150E-08  0.6000E+00
     22.907 -0.6998E-10  0.6000E+00
     22.996 -0.1510E-11  0.6000E+00
     23.085 -0.2164E-13  0.6000E+00
     23.175 -0.2055E-15  0.6000E+00
     23.264 -0.1297E-17  0.6000E+00
     23.353  0.0000E+00  0.6000E+00
     23.442  0.0000E+00  0.6000E+00
     23.531  0.0000E+00  0.6000E+00
     23.621  0.0000E+00  0.6000E+00
     23.710  0.0000E+00  0.6000E+00
     23.799  0.0000E+00  0.6000E+00
     23.888  0.0000E+00  0.6000E+00
     23.977  0.0000E+00  0.6000E+00
