    1    1   30    1
  0.2276607E+02  0.3181273E-09  0.3181273E-09  0.3181273E-09  0.5000000E-15
  1.000000000000000E-004
  CAR 
 unknown system                          
     11     60      9
 
  0.6250000E-01  0.6250000E-01  0.6250000E-01  0.3906250E-02
    1       -0.782533
    2        1.030202
    3        1.065795
    4        1.065795
    5        1.650411
    6        1.650411
    7       20.002000
    8       21.112718
    9       21.977344
 
  0.1875000E+00  0.6250000E-01  0.6250000E-01  0.1171875E-01
    1       -0.300732
    2        0.962207
    3        1.154379
    4        1.177101
    5        1.578137
    6        1.708954
    7       17.863917
    8       19.486199
    9       21.522855
 
  0.3125000E+00  0.6250000E-01  0.6250000E-01  0.1171875E-01
    1        0.258703
    2        1.134528
    3        1.190006
    4        1.449660
    5        1.686485
    6        2.078036
    7       13.493761
    8       18.862666
    9       20.966961
 
  0.4375000E+00  0.6250000E-01  0.6250000E-01  0.1171875E-01
    1        0.194131
    2        1.058235
    3        1.100326
    4        1.965387
    5        1.982223
    6        3.833405
    7        9.503974
    8       18.602890
    9       19.920577
 
 -0.4375000E+00  0.6250000E-01  0.6250000E-01  0.1171875E-01
    1        0.148092
    2        1.016357
    3        1.076039
    4        2.017154
    5        2.136254
    6        5.371988
    7        7.467928
    8       18.973157
    9       19.522283
 
 -0.3125000E+00  0.6250000E-01  0.6250000E-01  0.1171875E-01
    1        0.226250
    2        1.078825
    3        1.142935
    4        1.745439
    5        2.026073
    6        3.065387
    7       10.760503
    8       19.430539
    9       19.582407
 
 -0.1875000E+00  0.6250000E-01  0.6250000E-01  0.1171875E-01
    1        0.165894
    2        1.074742
    3        1.209850
    4        1.226260
    5        1.724292
    6        1.789847
    7       14.930890
    8       19.996683
    9       20.112328
 
 -0.6250000E-01  0.6250000E-01  0.6250000E-01  0.1171875E-01
    1       -0.531130
    2        0.968426
    3        1.132260
    4        1.132528
    5        1.588207
    6        1.688022
    7       19.236516
    8       20.437615
    9       20.904748
 
  0.1875000E+00  0.1875000E+00  0.6250000E-01  0.1171875E-01
    1       -0.072308
    2        0.844138
    3        1.253430
    4        1.261689
    5        1.537588
    6        1.758130
    7       18.063810
    8       19.453098
    9       19.976918
 
  0.3125000E+00  0.1875000E+00  0.6250000E-01  0.2343750E-01
    1        0.487523
    2        0.780398
    3        1.192722
    4        1.420504
    5        1.757889
    6        2.164318
    7       15.315355
    8       17.096180
    9       19.943087
 
  0.4375000E+00  0.1875000E+00  0.6250000E-01  0.2343750E-01
    1        0.428726
    2        0.994012
    3        1.238883
    4        1.402622
    5        2.039664
    6        3.787427
    7       11.173285
    8       16.716263
    9       17.888240
 
 -0.4375000E+00  0.1875000E+00  0.6250000E-01  0.2343750E-01
    1        0.371619
    2        0.902374
    3        1.274460
    4        1.595960
    5        2.115017
    6        6.256664
    7        7.745075
    8       16.358855
    9       17.195515
 
 -0.3125000E+00  0.1875000E+00  0.6250000E-01  0.2343750E-01
    1        0.442020
    2        0.948737
    3        1.276914
    4        1.515465
    5        1.956603
    6        4.592036
    7        9.941812
    8       15.683644
    9       18.409431
 
 -0.1875000E+00  0.1875000E+00  0.6250000E-01  0.2343750E-01
    1        0.587985
    2        0.922288
    3        1.149424
    4        1.412015
    5        1.638097
    6        2.692612
    7       13.913150
    8       15.796309
    9       20.241584
 
 -0.6250000E-01  0.1875000E+00  0.6250000E-01  0.2343750E-01
    1        0.104874
    2        0.884844
    3        1.228821
    4        1.258691
    5        1.569722
    6        1.839576
    7       16.534702
    8       18.289281
    9       21.267378
 
  0.3125000E+00  0.3125000E+00  0.6250000E-01  0.1171875E-01
    1        0.478043
    2        0.531067
    3        1.588088
    4        1.650970
    5        1.955507
    6        2.525480
    7       15.685605
    8       16.671576
    9       17.184081
 
  0.4375000E+00  0.3125000E+00  0.6250000E-01  0.2343750E-01
    1        0.406963
    2        0.513483
    3        1.532797
    4        1.833803
    5        2.063744
    6        4.165915
    7       13.275692
    8       14.719795
    9       15.218961
 
 -0.4375000E+00  0.3125000E+00  0.6250000E-01  0.2343750E-01
    1        0.422856
    2        0.714234
    3        1.376178
    4        1.684423
    5        2.145838
    6        6.665267
    7        9.701006
    8       13.035573
    9       15.379640
 
 -0.3125000E+00  0.3125000E+00  0.6250000E-01  0.2343750E-01
    1        0.600097
    2        0.928393
    3        1.147612
    4        1.579947
    5        1.963738
    6        6.729134
    7        9.841919
    8       11.944038
    9       16.550897
 
 -0.1875000E+00  0.3125000E+00  0.6250000E-01  0.2343750E-01
    1        0.700690
    2        0.898934
    3        1.147533
    4        1.513918
    5        1.771342
    6        4.425681
    7       11.671665
    8       13.607155
    9       18.302813
 
 -0.6250000E-01  0.3125000E+00  0.6250000E-01  0.2343750E-01
    1        0.356085
    2        1.087640
    3        1.226039
    4        1.408958
    5        1.875099
    6        2.747002
    7       12.238306
    8       17.735528
    9       20.116472
 
  0.4375000E+00  0.4375000E+00  0.6250000E-01  0.1171875E-01
    1        0.217174
    2        0.252495
    3        2.009435
    4        2.057416
    5        2.162276
    6        5.226212
    7       12.087029
    8       14.095605
    9       14.814693
 
 -0.4375000E+00  0.4375000E+00  0.6250000E-01  0.2343750E-01
    1        0.226488
    2        0.301589
    3        1.900288
    4        2.009146
    5        2.228446
    6        7.153014
    7       10.273126
    8       12.537562
    9       14.067832
 
 -0.3125000E+00  0.4375000E+00  0.6250000E-01  0.2343750E-01
    1        0.389358
    2        0.651378
    3        1.460858
    4        1.777930
    5        2.131653
    6        8.308571
    7        9.348849
    8       11.027189
    9       15.076691
 
 -0.1875000E+00  0.4375000E+00  0.6250000E-01  0.2343750E-01
    1        0.520705
    2        0.850960
    3        1.370799
    4        1.434331
    5        2.056266
    6        6.927907
    7        8.132038
    8       14.088567
    9       16.763669
 
 -0.6250000E-01  0.4375000E+00  0.6250000E-01  0.2343750E-01
    1        0.249039
    2        0.987747
    3        1.154172
    4        1.805245
    5        2.094093
    6        4.937860
    7        8.482637
    8       17.789252
    9       18.633601
 
 -0.4375000E+00 -0.4375000E+00  0.6250000E-01  0.1171875E-01
    1        0.136218
    2        0.188616
    3        2.080103
    4        2.175329
    5        2.235137
    6        6.685649
    7       10.189255
    8       13.705367
    9       14.409522
 
 -0.3125000E+00 -0.4375000E+00  0.6250000E-01  0.2343750E-01
    1        0.297342
    2        0.371642
    3        1.744074
    4        1.982495
    5        2.157008
    6        5.648425
    7       12.045616
    8       13.043622
    9       14.434399
 
 -0.1875000E+00 -0.4375000E+00  0.6250000E-01  0.2343750E-01
    1        0.449482
    2        0.842324
    3        1.276652
    4        1.539417
    5        2.125809
    6        5.111613
    7       10.316621
    8       15.327094
    9       16.002138
 
 -0.3125000E+00 -0.3125000E+00  0.6250000E-01  0.1171875E-01
    1        0.345831
    2        0.380540
    3        1.848848
    4        1.856815
    5        2.061298
    6        3.741982
    7       14.352550
    8       14.933921
    9       15.588693
 
 -0.1875000E+00 -0.3125000E+00  0.6250000E-01  0.2343750E-01
    1        0.521142
    2        0.679520
    3        1.304982
    4        1.623583
    5        1.940168
    6        2.954907
    7       14.228950
    8       15.973999
    9       17.387950
 
 -0.1875000E+00 -0.1875000E+00  0.6250000E-01  0.1171875E-01
    1        0.393922
    2        0.686430
    3        1.354819
    4        1.441520
    5        1.772918
    6        1.851086
    7       16.844015
    8       17.990411
    9       19.552254
 
  0.1875000E+00  0.1875000E+00  0.1875000E+00  0.3906250E-02
    1       -0.118501
    2        1.051658
    3        1.165375
    4        1.165375
    5        1.659648
    6        1.659648
    7       16.327944
    8       20.582411
    9       21.525288
 
  0.3125000E+00  0.1875000E+00  0.1875000E+00  0.1171875E-01
    1        0.377446
    2        0.917491
    3        1.252508
    4        1.295751
    5        1.512027
    6        2.138706
    7       15.141276
    8       16.984017
    9       21.861561
 
  0.4375000E+00  0.1875000E+00  0.1875000E+00  0.1171875E-01
    1        0.651679
    2        0.939686
    3        1.281603
    4        1.376483
    5        1.614683
    6        3.427683
    7       12.695282
    8       14.612316
    9       20.624461
 
 -0.4375000E+00  0.1875000E+00  0.1875000E+00  0.1171875E-01
    1        0.469084
    2        0.913030
    3        1.315987
    4        1.519049
    5        1.968984
    6        5.641121
    7        8.923554
    8       14.785873
    9       18.707787
 
 -0.3125000E+00  0.1875000E+00  0.1875000E+00  0.1171875E-01
    1        0.391948
    2        0.906007
    3        1.351049
    4        1.444092
    5        2.153737
    6        5.616895
    7        8.861495
    8       15.791767
    9       17.478063
 
 -0.1875000E+00  0.1875000E+00  0.1875000E+00  0.1171875E-01
    1        0.445789
    2        0.884288
    3        1.256116
    4        1.438387
    5        2.062716
    6        3.230252
    7       12.612195
    8       17.271490
    9       17.536818
 
  0.3125000E+00  0.3125000E+00  0.1875000E+00  0.1171875E-01
    1        0.391623
    2        1.062344
    3        1.147375
    4        1.301521
    5        1.934122
    6        2.268226
    7       13.688462
    8       18.539955
    9       19.582068
 
  0.4375000E+00  0.3125000E+00  0.1875000E+00  0.2343750E-01
    1        0.619761
    2        0.908849
    3        1.041375
    4        1.593762
    5        1.839441
    6        3.600487
    7       12.861682
    8       14.752971
    9       17.754503
 
 -0.4375000E+00  0.3125000E+00  0.1875000E+00  0.2343750E-01
    1        0.743019
    2        0.795146
    3        1.045866
    4        1.646094
    5        1.954876
    6        5.697762
    7       10.849955
    8       12.807039
    9       15.883195
 
 -0.3125000E+00  0.3125000E+00  0.1875000E+00  0.2343750E-01
    1        0.599912
    2        0.776611
    3        1.200505
    4        1.591201
    5        2.108487
    6        7.500672
    7        8.525695
    8       13.513810
    9       14.665736
 
 -0.1875000E+00  0.3125000E+00  0.1875000E+00  0.2343750E-01
    1        0.549765
    2        0.711918
    3        1.197265
    4        1.771095
    5        1.996071
    6        4.843502
    7       11.999504
    8       13.858303
    9       15.337686
 
  0.4375000E+00  0.4375000E+00  0.1875000E+00  0.1171875E-01
    1        0.391933
    2        0.679510
    3        1.464106
    4        1.605124
    5        2.150760
    6        4.505931
    7       11.722073
    8       15.022418
    9       16.257374
 
 -0.4375000E+00  0.4375000E+00  0.1875000E+00  0.2343750E-01
    1        0.461726
    2        0.564908
    3        1.376113
    4        1.857280
    5        2.132459
    6        6.346004
    7       11.315254
    8       12.695509
    9       13.645629
 
 -0.3125000E+00  0.4375000E+00  0.1875000E+00  0.2343750E-01
    1        0.565996
    2        0.762656
    3        1.112749
    4        1.709971
    5        2.225660
    6        8.874752
    7        9.900702
    8       11.100426
    9       12.460415
 
 -0.1875000E+00  0.4375000E+00  0.1875000E+00  0.2343750E-01
    1        0.650324
    2        0.767088
    3        1.062252
    4        1.706298
    5        2.120791
    6        7.214197
    7       10.254947
    8       12.163239
    9       13.687352
 
 -0.4375000E+00 -0.4375000E+00  0.1875000E+00  0.1171875E-01
    1        0.263601
    2        0.447941
    3        1.770660
    4        1.901652
    5        2.168945
    6        7.577703
    7       10.194901
    8       11.237997
    9       15.182831
 
 -0.3125000E+00 -0.4375000E+00  0.1875000E+00  0.2343750E-01
    1        0.394685
    2        0.501064
    3        1.513328
    4        1.851688
    5        2.226469
    6        7.937640
    7       10.369848
    8       11.453560
    9       13.193537
 
 -0.3125000E+00 -0.3125000E+00  0.1875000E+00  0.1171875E-01
    1        0.315918
    2        0.525709
    3        1.656343
    4        1.775319
    5        2.183225
    6        6.019807
    7       11.023170
    8       12.728272
    9       15.548279
 
  0.3125000E+00  0.3125000E+00  0.3125000E+00  0.3906250E-02
    1        0.204679
    2        1.133186
    3        1.133186
    4        1.870240
    5        1.870240
    6        2.185658
    7       12.027402
    8       20.033773
    9       20.738948
 
  0.4375000E+00  0.3125000E+00  0.3125000E+00  0.1171875E-01
    1        0.376607
    2        1.036049
    3        1.216074
    4        1.617167
    5        1.808295
    6        3.525678
    7       10.987025
    8       16.630377
    9       20.304211
 
 -0.4375000E+00  0.3125000E+00  0.3125000E+00  0.1171875E-01
    1        0.649748
    2        0.942569
    3        1.227903
    4        1.471223
    5        1.826020
    6        5.460882
    7       10.664857
    8       12.655958
    9       18.536980
 
 -0.3125000E+00  0.3125000E+00  0.3125000E+00  0.1171875E-01
    1        0.457275
    2        0.839785
    3        1.321061
    4        1.662411
    5        2.024861
    6        7.952600
    7        8.981041
    8       11.341038
    9       16.610716
 
  0.4375000E+00  0.4375000E+00  0.3125000E+00  0.1171875E-01
    1        0.301027
    2        0.996418
    3        1.219018
    4        1.579839
    5        2.125999
    6        4.223108
    7        9.700776
    8       18.171321
    9       18.329044
 
 -0.4375000E+00  0.4375000E+00  0.3125000E+00  0.2343750E-01
    1        0.535524
    2        0.837078
    3        1.294691
    4        1.482377
    5        2.064112
    6        5.926861
    7        9.113140
    8       14.892119
    9       16.094302
 
 -0.3125000E+00  0.4375000E+00  0.3125000E+00  0.2343750E-01
    1        0.579561
    2        0.823813
    3        1.123865
    4        1.670008
    5        2.119472
    6        8.216327
    7        9.241687
    8       11.469239
    9       14.343326
 
 -0.4375000E+00 -0.4375000E+00  0.3125000E+00  0.1171875E-01
    1        0.448812
    2        0.849162
    3        1.358903
    4        1.515905
    5        2.108359
    6        7.225715
    7        8.270790
    8       13.459694
    9       16.901298
 
  0.4375000E+00  0.4375000E+00  0.4375000E+00  0.3906250E-02
    1        0.118502
    2        1.051727
    3        1.051727
    4        2.098977
    5        2.098977
    6        4.483319
    7        8.293608
    8       19.465447
    9       20.062415
 
 -0.4375000E+00  0.4375000E+00  0.4375000E+00  0.1171875E-01
    1        0.273402
    2        0.961036
    3        1.169502
    4        1.802909
    5        2.088294
    6        5.848047
    7        7.605819
    8       16.993482
    9       19.044081
