       N       E                     dE             d eps       ncg     rms          rms(c)
DAV:   1     0.278504322240E+02    0.27850E+02   -0.44152E+03  1280   0.750E+02
DAV:   2    -0.240140029733E+01   -0.30252E+02   -0.27816E+02  1109   0.151E+02
DAV:   3    -0.265032569091E+01   -0.24893E+00   -0.24888E+00  1248   0.160E+01
DAV:   4    -0.265090526571E+01   -0.57957E-03   -0.57956E-03  1259   0.764E-01
DAV:   5    -0.265091063302E+01   -0.53673E-05   -0.53678E-05  1055   0.664E-02    0.262E+00
DAV:   6    -0.250194150222E+01    0.14897E+00   -0.84642E-01  1123   0.947E+00    0.196E+00
DAV:   7    -0.250051514114E+01    0.14264E-02   -0.20487E-03  1139   0.490E-01    0.115E+00
DAV:   8    -0.249986519077E+01    0.64995E-03   -0.81480E-04  1125   0.333E-01    0.309E-02
DAV:   9    -0.249988980733E+01   -0.24617E-04   -0.16232E-05   589   0.436E-02
   1 F= -.24998898E+01 E0= -.24997942E+01  d E =-.249989E+01
