 vasp.5.3.5 31Mar14 (build Jan 09 2015 16:57:47) complex                        
  
 executed on             LinuxIFC date 2015.03.24  14:26:01
 serial version


--------------------------------------------------------------------------------------------------------


 INCAR:
 POTCAR:    PAW_PBE Ag 02Apr2005                  
 POTCAR:    PAW_PBE Ag 02Apr2005                  
   VRHFIN =Ag : s1 d10                                                          
   LEXCH  = PE                                                                  
   EATOM  =  1037.2675 eV,   76.2370 Ry                                         
                                                                                
   TITEL  = PAW_PBE Ag 02Apr2005                                                
   LULTRA =        F    use ultrasoft PP ?                                      
   IUNSCR =        1    unscreen: 0-lin 1-nonlin 2-no                           
   RPACOR =    2.000    partial core radius                                     
   POMASS =  107.868; ZVAL   =   11.000    mass and valenz                      
   RCORE  =    2.500    outmost cutoff radius                                   
   RWIGS  =    2.840; RWIGS  =    1.503    wigner-seitz radius (au A)           
   ENMAX  =  249.844; ENMIN  =  187.383 eV                                      
   ICORE  =        3    local potential                                         
   LCOR   =        T    correct aug charges                                     
   LPAW   =        T    paw PP                                                  
   EAUG   =  412.496                                                            
   DEXC   =    0.000                                                            
   RMAX   =    2.560    core radius for proj-oper                               
   RAUG   =    1.300    factor for augmentation sphere                          
   RDEP   =    2.576    radius for radial grids                                 
   RDEPT  =    2.072    core radius for aug-charge                              
                                                                                
   Atomic configuration                                                         
   12 entries                                                                   
     n  l   j            E        occ.                                          
     1  0  0.50    -25324.9161   2.0000                                         
     2  0  0.50     -3728.5341   2.0000                                         
     2  1  1.50     -3344.0404   6.0000                                         
     3  0  0.50      -683.5581   2.0000                                         
     3  1  1.50      -557.3225   6.0000                                         
     3  2  2.50      -358.3853  10.0000                                         
     4  0  0.50       -95.0341   2.0000                                         
     4  1  1.50       -58.5511   6.0000                                         
     4  2  2.50        -7.4440  10.0000                                         
     5  0  0.50        -4.4045   1.0000                                         
     5  1  0.50        -1.3606   0.0000                                         
     4  3  2.50        -1.3606   0.0000                                         
   Description                                                                  
     l       E           TYP  RCUT    TYP  RCUT                                 
     2     -7.4439781     23  2.400                                             
     2     -8.8045607     23  2.400                                             
     0     -4.4044681     23  2.400                                             
     0      1.9520038     23  2.400                                             
     1     -1.3605826     23  2.500                                             
     1     27.2116520     23  2.500                                             
     3     -4.0817478     23  2.400                                             
  local pseudopotential read in
  partial core-charges read in
  partial kinetic energy density read in
  atomic valenz-charges read in
  non local Contribution for L=           2  read in
    real space projection operators read in
  non local Contribution for L=           2  read in
    real space projection operators read in
  non local Contribution for L=           0  read in
    real space projection operators read in
  non local Contribution for L=           0  read in
    real space projection operators read in
  non local Contribution for L=           1  read in
    real space projection operators read in
  non local Contribution for L=           1  read in
    real space projection operators read in
    PAW grid and wavefunctions read in
 
   number of l-projection  operators is LMAX  =           6
   number of lm-projection operators is LMMAX =          18
 
  PAW_PBE Ag 02Apr2005                  :
 energy of atom  1       EATOM=-1037.2675
 kinetic energy error for atom=    0.0272 (will be added to EATOM!!)
 
 
 POSCAR: Ag                                      
  positions in cartesian coordinates
  No initial velocities read in
 exchange correlation table for  LEXCH =        8
   RHO(1)=    0.500       N(1)  =     2000
   RHO(2)=  100.500       N(2)  =     4000

 VTST: version 3.1, (03/28/14)

 CHAIN: initializing optimizer
 
 OPT: Using VASP Conjugate-Gradient optimizer
 CHAIN: Read ICHAIN            0
 
 POSCAR: Ag                                      
  positions in cartesian coordinates
  No initial velocities read in
 


--------------------------------------------------------------------------------------------------------


 ion  position               nearest neighbor table
   1  0.000  0.000  0.000-
 
  LATTYP: Found a face centered cubic cell.
 ALAT       =     4.4990000000
  
  Lattice vectors:
  
 A1 = (   3.1812734086,   0.0000000000,   0.0000000000)
 A2 = (   1.5906367043,   2.7550635882,   0.0000000000)
 A3 = (   1.5906367043,   0.9183545294,   2.5974988611)


Analysis of symmetry for initial positions (statically):
=====================================================================
 Subroutine PRICEL returns:
 Original cell was already a primitive cell.
 

 Routine SETGRP: Setting up the symmetry group for a 
 face centered cubic supercell.


 Subroutine GETGRP returns: Found 48 space group operations
 (whereof 48 operations were pure point group operations)
 out of a pool of 48 trial point group operations.


The static configuration has the point symmetry O_h .


Analysis of symmetry for dynamics (positions and initial velocities):
=====================================================================
 Subroutine PRICEL returns:
 Original cell was already a primitive cell.
 

 Routine SETGRP: Setting up the symmetry group for a 
 face centered cubic supercell.


 Subroutine GETGRP returns: Found 48 space group operations
 (whereof 48 operations were pure point group operations)
 out of a pool of 48 trial point group operations.


The dynamic configuration has the point symmetry O_h .
 
 
 KPOINTS: KPOINTS created by Atomic Simulation Env

Automatic generation of k-mesh.
Space group operators:
 irot       det(A)        alpha          n_x          n_y          n_z        tau_x        tau_y        tau_z
    1     1.000000     0.000001     1.000000     0.000000     0.000000     0.000000     0.000000     0.000000
    2    -1.000000     0.000001     1.000000     0.000000     0.000000     0.000000     0.000000     0.000000
    3     1.000000   120.000000    -0.816497    -0.471405    -0.333333     0.000000     0.000000     0.000000
    4    -1.000000   120.000000    -0.816497    -0.471405    -0.333333     0.000000     0.000000     0.000000
    5     1.000000   120.000000     0.816497     0.471405     0.333333     0.000000     0.000000     0.000000
    6    -1.000000   120.000000     0.816497     0.471405     0.333333     0.000000     0.000000     0.000000
    7     1.000000    90.000000    -0.707107    -0.408248     0.577350     0.000000     0.000000     0.000000
    8    -1.000000    90.000000    -0.707107    -0.408248     0.577350     0.000000     0.000000     0.000000
    9     1.000000   179.999999     1.000000     0.000000     0.000000     0.000000     0.000000     0.000000
   10    -1.000000   179.999999     1.000000     0.000000     0.000000     0.000000     0.000000     0.000000
   11     1.000000    90.000000     0.707107    -0.408248     0.577350     0.000000     0.000000     0.000000
   12    -1.000000    90.000000     0.707107    -0.408248     0.577350     0.000000     0.000000     0.000000
   13     1.000000   180.000000     0.707107     0.408248    -0.577350     0.000000     0.000000     0.000000
   14    -1.000000   180.000000     0.707107     0.408248    -0.577350     0.000000     0.000000     0.000000
   15     1.000000   120.000000     0.816497    -0.471405    -0.333333     0.000000     0.000000     0.000000
   16    -1.000000   120.000000     0.816497    -0.471405    -0.333333     0.000000     0.000000     0.000000
   17     1.000000   120.000000     0.000000    -0.942809     0.333333     0.000000     0.000000     0.000000
   18    -1.000000   120.000000     0.000000    -0.942809     0.333333     0.000000     0.000000     0.000000
   19     1.000000    90.000000     0.707107     0.408248    -0.577350     0.000000     0.000000     0.000000
   20    -1.000000    90.000000     0.707107     0.408248    -0.577350     0.000000     0.000000     0.000000
   21     1.000000    90.000000     0.000000    -0.816497    -0.577350     0.000000     0.000000     0.000000
   22    -1.000000    90.000000     0.000000    -0.816497    -0.577350     0.000000     0.000000     0.000000
   23     1.000000   179.999999     0.500000     0.866025     0.000000     0.000000     0.000000     0.000000
   24    -1.000000   179.999999     0.500000     0.866025     0.000000     0.000000     0.000000     0.000000
   25     1.000000   120.000000     0.000000     0.942809    -0.333333     0.000000     0.000000     0.000000
   26    -1.000000   120.000000     0.000000     0.942809    -0.333333     0.000000     0.000000     0.000000
   27     1.000000   120.000000     0.000000     0.000000    -1.000000     0.000000     0.000000     0.000000
   28    -1.000000   120.000000     0.000000     0.000000    -1.000000     0.000000     0.000000     0.000000
   29     1.000000   179.999999     0.000000    -0.816497    -0.577350     0.000000     0.000000     0.000000
   30    -1.000000   179.999999     0.000000    -0.816497    -0.577350     0.000000     0.000000     0.000000
   31     1.000000    90.000000    -0.707107     0.408248    -0.577350     0.000000     0.000000     0.000000
   32    -1.000000    90.000000    -0.707107     0.408248    -0.577350     0.000000     0.000000     0.000000
   33     1.000000   179.999999     0.500000     0.288675     0.816497     0.000000     0.000000     0.000000
   34    -1.000000   179.999999     0.500000     0.288675     0.816497     0.000000     0.000000     0.000000
   35     1.000000    90.000000     0.000000     0.816497     0.577350     0.000000     0.000000     0.000000
   36    -1.000000    90.000000     0.000000     0.816497     0.577350     0.000000     0.000000     0.000000
   37     1.000000   120.000000    -0.816497     0.471405     0.333333     0.000000     0.000000     0.000000
   38    -1.000000   120.000000    -0.816497     0.471405     0.333333     0.000000     0.000000     0.000000
   39     1.000000   180.000000    -0.707107     0.408248    -0.577350     0.000000     0.000000     0.000000
   40    -1.000000   180.000000    -0.707107     0.408248    -0.577350     0.000000     0.000000     0.000000
   41     1.000000   120.000000     0.000000     0.000000     1.000000     0.000000     0.000000     0.000000
   42    -1.000000   120.000000     0.000000     0.000000     1.000000     0.000000     0.000000     0.000000
   43     1.000000   179.999999     0.000000    -0.577350     0.816497     0.000000     0.000000     0.000000
   44    -1.000000   179.999999     0.000000    -0.577350     0.816497     0.000000     0.000000     0.000000
   45     1.000000   179.999999     0.500000    -0.866025     0.000000     0.000000     0.000000     0.000000
   46    -1.000000   179.999999     0.500000    -0.866025     0.000000     0.000000     0.000000     0.000000
   47     1.000000   180.000000    -0.500000     0.288675     0.816497     0.000000     0.000000     0.000000
   48    -1.000000   180.000000    -0.500000     0.288675     0.816497     0.000000     0.000000     0.000000
 
 Subroutine IBZKPT returns following result:
 ===========================================
 
 Found     60 irreducible k-points:
 
 Following reciprocal coordinates:
            Coordinates               Weight
  0.062500  0.062500  0.062500     96.000000
  0.187500  0.062500  0.062500    288.000000
  0.312500  0.062500  0.062500    288.000000
  0.437500  0.062500  0.062500    288.000000
 -0.437500  0.062500  0.062500    288.000000
 -0.312500  0.062500  0.062500    288.000000
 -0.187500  0.062500  0.062500    288.000000
 -0.062500  0.062500  0.062500    288.000000
  0.187500  0.187500  0.062500    288.000000
  0.312500  0.187500  0.062500    576.000000
  0.437500  0.187500  0.062500    576.000000
 -0.437500  0.187500  0.062500    576.000000
 -0.312500  0.187500  0.062500    576.000000
 -0.187500  0.187500  0.062500    576.000000
 -0.062500  0.187500  0.062500    576.000000
  0.312500  0.312500  0.062500    288.000000
  0.437500  0.312500  0.062500    576.000000
 -0.437500  0.312500  0.062500    576.000000
 -0.312500  0.312500  0.062500    576.000000
 -0.187500  0.312500  0.062500    576.000000
 -0.062500  0.312500  0.062500    576.000000
  0.437500  0.437500  0.062500    288.000000
 -0.437500  0.437500  0.062500    576.000000
 -0.312500  0.437500  0.062500    576.000000
 -0.187500  0.437500  0.062500    576.000000
 -0.062500  0.437500  0.062500    576.000000
 -0.437500 -0.437500  0.062500    288.000000
 -0.312500 -0.437500  0.062500    576.000000
 -0.187500 -0.437500  0.062500    576.000000
 -0.312500 -0.312500  0.062500    288.000000
 -0.187500 -0.312500  0.062500    576.000000
 -0.187500 -0.187500  0.062500    288.000000
  0.187500  0.187500  0.187500     96.000000
  0.312500  0.187500  0.187500    288.000000
  0.437500  0.187500  0.187500    288.000000
 -0.437500  0.187500  0.187500    288.000000
 -0.312500  0.187500  0.187500    288.000000
 -0.187500  0.187500  0.187500    288.000000
  0.312500  0.312500  0.187500    288.000000
  0.437500  0.312500  0.187500    576.000000
 -0.437500  0.312500  0.187500    576.000000
 -0.312500  0.312500  0.187500    576.000000
 -0.187500  0.312500  0.187500    576.000000
  0.437500  0.437500  0.187500    288.000000
 -0.437500  0.437500  0.187500    576.000000
 -0.312500  0.437500  0.187500    576.000000
 -0.187500  0.437500  0.187500    576.000000
 -0.437500 -0.437500  0.187500    288.000000
 -0.312500 -0.437500  0.187500    576.000000
 -0.312500 -0.312500  0.187500    288.000000
  0.312500  0.312500  0.312500     96.000000
  0.437500  0.312500  0.312500    288.000000
 -0.437500  0.312500  0.312500    288.000000
 -0.312500  0.312500  0.312500    288.000000
  0.437500  0.437500  0.312500    288.000000
 -0.437500  0.437500  0.312500    576.000000
 -0.312500  0.437500  0.312500    576.000000
 -0.437500 -0.437500  0.312500    288.000000
  0.437500  0.437500  0.437500     96.000000
 -0.437500  0.437500  0.437500    288.000000
 
 Following cartesian coordinates:
            Coordinates               Weight
  0.019646  0.011343  0.008021     96.000000
  0.058939 -0.011343 -0.008021    288.000000
  0.098231 -0.034028 -0.024062    288.000000
  0.137524 -0.056714 -0.040103    288.000000
 -0.137524  0.102085  0.072185    288.000000
 -0.098231  0.079399  0.056144    288.000000
 -0.058939  0.056714  0.040103    288.000000
 -0.019646  0.034028  0.024062    288.000000
  0.058939  0.034028 -0.024062    288.000000
  0.098231  0.011343 -0.040103    576.000000
  0.137524 -0.011343 -0.056144    576.000000
 -0.137524  0.147456  0.056144    576.000000
 -0.098231  0.124770  0.040103    576.000000
 -0.058939  0.102085  0.024062    576.000000
 -0.019646  0.079399  0.008021    576.000000
  0.098231  0.056714 -0.056144    288.000000
  0.137524  0.034028 -0.072185    576.000000
 -0.137524  0.192827  0.040103    576.000000
 -0.098231  0.170141  0.024062    576.000000
 -0.058939  0.147456  0.008021    576.000000
 -0.019646  0.124770 -0.008021    576.000000
  0.137524  0.079399 -0.088226    288.000000
 -0.137524  0.238198  0.024062    576.000000
 -0.098231  0.215512  0.008021    576.000000
 -0.058939  0.192827 -0.008021    576.000000
 -0.019646  0.170141 -0.024062    576.000000
 -0.137524 -0.079399  0.136349    288.000000
 -0.098231 -0.102085  0.120308    576.000000
 -0.058939 -0.124770  0.104267    576.000000
 -0.098231 -0.056714  0.104267    288.000000
 -0.058939 -0.079399  0.088226    576.000000
 -0.058939 -0.034028  0.072185    288.000000
  0.058939  0.034028  0.024062     96.000000
  0.098231  0.011343  0.008021    288.000000
  0.137524 -0.011343 -0.008021    288.000000
 -0.137524  0.147456  0.104267    288.000000
 -0.098231  0.124770  0.088226    288.000000
 -0.058939  0.102085  0.072185    288.000000
  0.098231  0.056714 -0.008021    288.000000
  0.137524  0.034028 -0.024062    576.000000
 -0.137524  0.192827  0.088226    576.000000
 -0.098231  0.170141  0.072185    576.000000
 -0.058939  0.147456  0.056144    576.000000
  0.137524  0.079399 -0.040103    288.000000
 -0.137524  0.238198  0.072185    576.000000
 -0.098231  0.215512  0.056144    576.000000
 -0.058939  0.192827  0.040103    576.000000
 -0.137524 -0.079399  0.184472    288.000000
 -0.098231 -0.102085  0.168431    576.000000
 -0.098231 -0.056714  0.152390    288.000000
  0.098231  0.056714  0.040103     96.000000
  0.137524  0.034028  0.024062    288.000000
 -0.137524  0.192827  0.136349    288.000000
 -0.098231  0.170141  0.120308    288.000000
  0.137524  0.079399  0.008021    288.000000
 -0.137524  0.238198  0.120308    576.000000
 -0.098231  0.215512  0.104267    576.000000
 -0.137524 -0.079399  0.232596    288.000000
  0.137524  0.079399  0.056144     96.000000
 -0.137524  0.238198  0.168431    288.000000
 


--------------------------------------------------------------------------------------------------------




 Dimension of arrays:
   k-points           NKPTS =     60   k-points in BZ     NKDIM =     60   number of bands    NBANDS=      9
   number of dos      NEDOS =    301   number of ions     NIONS =      1
   non local maximal  LDIM  =      6   non local SUM 2l+1 LMDIM =     18
   total plane-waves  NPLWV =   4096
   max r-space proj   IRMAX =      1   max aug-charges    IRDMAX=   9045
   dimension x,y,z NGX =    16 NGY =   16 NGZ =   16
   dimension x,y,z NGXF=    32 NGYF=   32 NGZF=   32
   support grid    NGXF=    32 NGYF=   32 NGZF=   32
   ions per type =               1
 NGX,Y,Z   is equivalent  to a cutoff of   8.36,  8.36,  8.36 a.u.
 NGXF,Y,Z  is equivalent  to a cutoff of  16.72, 16.72, 16.72 a.u.


 I would recommend the setting:
   dimension x,y,z NGX =    15 NGY =   15 NGZ =   15
 SYSTEM =  unknown system                          
 POSCAR =  Ag                                      

 Startparameter for this run:
   NWRITE =      2    write-flag & timer
   PREC   = normal    normal or accurate (medium, high low for compatibility)
   ISTART =      0    job   : 0-new  1-cont  2-samecut
   ICHARG =      2    charge: 1-file 2-atom 10-const
   ISPIN  =      1    spin polarized calculation?
   LNONCOLLINEAR =      F non collinear calculations
   LSORBIT =      F    spin-orbit coupling
   INIWAV =      1    electr: 0-lowe 1-rand  2-diag
   LASPH  =      F    aspherical Exc in radial PAW
   METAGGA=      F    non-selfconsistent MetaGGA calc.

 Electronic Relaxation 1
   ENCUT  =  350.0 eV  25.72 Ry    5.07 a.u.   4.85  4.85  4.85*2*pi/ulx,y,z
   ENINI  =  350.0     initial cutoff
   ENAUG  =  412.5 eV  augmentation charge cutoff
   NELM   =     60;   NELMIN=  2; NELMDL= -5     # of ELM steps 
   EDIFF  = 0.1E-03   stopping-criterion for ELM
   LREAL  =      F    real-space projection
   NLSPLINE    = F    spline interpolate recip. space projectors
   LCOMPAT=      F    compatible to vasp.4.4
   GGA_COMPAT  = T    GGA compatible to vasp.4.4-vasp.4.6
   LMAXPAW     = -100 max onsite density
   LMAXMIX     =    2 max onsite mixed and CHGCAR
   VOSKOWN=      0    Vosko Wilk Nusair interpolation
   ROPT   =    0.00000
 Ionic relaxation
   EDIFFG = 0.1E-02   stopping-criterion for IOM
   NSW    =     30    number of steps for IOM
   NBLOCK =      1;   KBLOCK =     30    inner block; outer block 
   IBRION =      2    ionic relax: 0-MD 1-quasi-New 2-CG
   NFREE  =      1    steps in history (QN), initial steepest desc. (CG)
   ISIF   =      2    stress and relaxation
   IWAVPR =     11    prediction:  0-non 1-charg 2-wave 3-comb
   ISYM   =      2    0-nonsym 1-usesym 2-fastsym
   LCORR  =      T    Harris-Foulkes like correction to forces

   POTIM  = 0.5000    time-step for ionic-motion
   TEIN   =    0.0    initial temperature
   TEBEG  =    0.0;   TEEND  =   0.0 temperature during run
   SMASS  =  -3.00    Nose mass-parameter (am)
   estimated Nose-frequenzy (Omega)   =  0.10E-29 period in steps =****** mass=  -0.231E-27a.u.
   SCALEE = 1.0000    scale energy and forces
   NPACO  =    256;   APACO  = 16.0  distance and # of slots for P.C.
   PSTRESS=    0.0 pullay stress

  Mass of Ions in am
   POMASS = 107.87
  Ionic Valenz
   ZVAL   =  11.00
  Atomic Wigner-Seitz radii
   RWIGS  =  -1.00
  virtual crystal weights 
   VCA    =   1.00
   NELECT =      11.0000    total number of electrons
   NUPDOWN=      -1.0000    fix difference up-down

 DOS related values:
   EMIN   =  10.00;   EMAX   =-10.00  energy-range for DOS
   EFERMI =   0.00
   ISMEAR =     1;   SIGMA  =   0.20  broadening in eV -4-tet -1-fermi 0-gaus

 Electronic relaxation 2 (details)
   IALGO  =     38    algorithm
   LDIAG  =      T    sub-space diagonalisation (order eigenvalues)
   LSUBROT=      F    optimize rotation matrix (better conditioning)
   TURBO    =      0    0=normal 1=particle mesh
   IRESTART =      0    0=no restart 2=restart with 2 vectors
   NREBOOT  =      0    no. of reboots
   NMIN     =      0    reboot dimension
   EREF     =   0.00    reference energy to select bands
   IMIX   =      4    mixing-type and parameters
     AMIX     =   0.40;   BMIX     =  1.00
     AMIX_MAG =   1.60;   BMIX_MAG =  1.00
     AMIN     =   0.10
     WC   =   100.;   INIMIX=   1;  MIXPRE=   1;  MAXMIX= -45

 Intra band minimization:
   WEIMIN = 0.0010     energy-eigenvalue tresh-hold
   EBREAK =  0.28E-05  absolut break condition
   DEPER  =   0.30     relativ break condition  

   TIME   =   0.40     timestep for ELM

  volume/ion in A,a.u.               =      22.77       153.63
  Fermi-wavevector in a.u.,A,eV,Ry     =   1.284625  2.427589 22.453172  1.650262
  Thomas-Fermi vector in A             =   2.416808
 
 Write flags
   LWAVE  =      T    write WAVECAR
   LCHARG =      T    write CHGCAR
   LVTOT  =      F    write LOCPOT, total local potential
   LVHAR  =      F    write LOCPOT, Hartree potential only
   LELF   =      F    write electronic localiz. function (ELF)
   LORBIT =      0    0 simple, 1 ext, 2 COOP (PROOUT)


 Dipole corrections
   LMONO  =      F    monopole corrections only (constant potential shift)
   LDIPOL =      F    correct potential (dipole corrections)
   IDIPOL =      0    1-x, 2-y, 3-z, 4-all directions 
   EPSILON=  1.0000000 bulk dielectric constant

 Exchange correlation treatment:
   GGA     =    --    GGA type
   LEXCH   =     8    internal setting for exchange type
   VOSKOWN=      0    Vosko Wilk Nusair interpolation
   LHFCALC =     F    Hartree Fock is set to
   LHFONE  =     F    Hartree Fock one center treatment
   AEXX    =    0.0000 exact exchange contribution

 Linear response parameters
   LEPSILON=     F    determine dielectric tensor
   LRPA    =     F    only Hartree local field effects (RPA)
   LNABLA  =     F    use nabla operator in PAW spheres
   LVEL    =     F    velocity operator in full k-point grid
   LINTERFAST=   F  fast interpolation
   KINTER  =     0    interpolate to denser k-point grid
   CSHIFT  =0.1000    complex shift for real part using Kramers Kronig
   OMEGAMAX=  -1.0    maximum frequency
   DEG_THRESHOLD= 0.2000000E-02 threshold for treating states as degnerate
   RTIME   =    0.100 relaxation time in fs

 Orbital magnetization related:
   ORBITALMAG=     F  switch on orbital magnetization
   LCHIMAG   =     F  perturbation theory with respect to B field
   DQ        =  0.001000  dq finite difference perturbation B field



--------------------------------------------------------------------------------------------------------


 conjugate gradient relaxation of ions
 charge density and potential will be updated during run
 non-spin polarized calculation
 Variant of blocked Davidson
 Davidson routine will perform the subspace rotation
 perform sub-space diagonalisation
    after iterative eigenvector-optimisation
 modified Broyden-mixing scheme, WC =      100.0
 initial mixing is a Kerker type mixing with AMIX =  0.4000 and BMIX =      1.0000
 Hartree-type preconditioning will be used
 using additional bands            3
 reciprocal scheme for non local part
 use partial core corrections
 calculate Harris-corrections to forces 
   (improved forces if not selfconsistent)
 use gradient corrections 
 use of overlap-Matrix (Vanderbilt PP)
 Methfessel and Paxton  Order N= 1 SIGMA  =   0.20


--------------------------------------------------------------------------------------------------------


  energy-cutoff  :      350.00
  volume of cell :       22.77
      direct lattice vectors                 reciprocal lattice vectors
     3.181273409  0.000000000  0.000000000     0.314339534 -0.181484014 -0.128328577
     1.590636704  2.755063588  0.000000000     0.000000000  0.362968029 -0.128328577
     1.590636704  0.918354529  2.597498861     0.000000000  0.000000000  0.384985732

  length of vectors
     3.181273409  3.181273409  3.181273409     0.384985732  0.384985732  0.384985732


 
 k-points in units of 2pi/SCALE and weight: KPOINTS created by Atomic Simulation Env
   0.01964622  0.01134275  0.00802054       0.004
   0.05893866 -0.01134275 -0.00802054       0.012
   0.09823110 -0.03402825 -0.02406161       0.012
   0.13752355 -0.05671375 -0.04010268       0.012
  -0.13752355  0.10208476  0.07218482       0.012
  -0.09823110  0.07939926  0.05614375       0.012
  -0.05893866  0.05671375  0.04010268       0.012
  -0.01964622  0.03402825  0.02406161       0.012
   0.05893866  0.03402825 -0.02406161       0.012
   0.09823110  0.01134275 -0.04010268       0.023
   0.13752355 -0.01134275 -0.05614375       0.023
  -0.13752355  0.14745576  0.05614375       0.023
  -0.09823110  0.12477026  0.04010268       0.023
  -0.05893866  0.10208476  0.02406161       0.023
  -0.01964622  0.07939926  0.00802054       0.023
   0.09823110  0.05671375 -0.05614375       0.012
   0.13752355  0.03402825 -0.07218482       0.023
  -0.13752355  0.19282677  0.04010268       0.023
  -0.09823110  0.17014126  0.02406161       0.023
  -0.05893866  0.14745576  0.00802054       0.023
  -0.01964622  0.12477026 -0.00802054       0.023
   0.13752355  0.07939926 -0.08822590       0.012
  -0.13752355  0.23819777  0.02406161       0.023
  -0.09823110  0.21551227  0.00802054       0.023
  -0.05893866  0.19282677 -0.00802054       0.023
  -0.01964622  0.17014126 -0.02406161       0.023
  -0.13752355 -0.07939926  0.13634911       0.012
  -0.09823110 -0.10208476  0.12030804       0.023
  -0.05893866 -0.12477026  0.10426697       0.023
  -0.09823110 -0.05671375  0.10426697       0.012
  -0.05893866 -0.07939926  0.08822590       0.023
  -0.05893866 -0.03402825  0.07218482       0.012
   0.05893866  0.03402825  0.02406161       0.004
   0.09823110  0.01134275  0.00802054       0.012
   0.13752355 -0.01134275 -0.00802054       0.012
  -0.13752355  0.14745576  0.10426697       0.012
  -0.09823110  0.12477026  0.08822590       0.012
  -0.05893866  0.10208476  0.07218482       0.012
   0.09823110  0.05671375 -0.00802054       0.012
   0.13752355  0.03402825 -0.02406161       0.023
  -0.13752355  0.19282677  0.08822590       0.023
  -0.09823110  0.17014126  0.07218482       0.023
  -0.05893866  0.14745576  0.05614375       0.023
   0.13752355  0.07939926 -0.04010268       0.012
  -0.13752355  0.23819777  0.07218482       0.023
  -0.09823110  0.21551227  0.05614375       0.023
  -0.05893866  0.19282677  0.04010268       0.023
  -0.13752355 -0.07939926  0.18447233       0.012
  -0.09823110 -0.10208476  0.16843126       0.023
  -0.09823110 -0.05671375  0.15239019       0.012
   0.09823110  0.05671375  0.04010268       0.004
   0.13752355  0.03402825  0.02406161       0.012
  -0.13752355  0.19282677  0.13634911       0.012
  -0.09823110  0.17014126  0.12030804       0.012
   0.13752355  0.07939926  0.00802054       0.012
  -0.13752355  0.23819777  0.12030804       0.023
  -0.09823110  0.21551227  0.10426697       0.023
  -0.13752355 -0.07939926  0.23259555       0.012
   0.13752355  0.07939926  0.05614375       0.004
  -0.13752355  0.23819777  0.16843126       0.012
 
 k-points in reciprocal lattice and weights: KPOINTS created by Atomic Simulation Env
   0.06250000  0.06250000  0.06250000       0.004
   0.18750000  0.06250000  0.06250000       0.012
   0.31250000  0.06250000  0.06250000       0.012
   0.43750000  0.06250000  0.06250000       0.012
  -0.43750000  0.06250000  0.06250000       0.012
  -0.31250000  0.06250000  0.06250000       0.012
  -0.18750000  0.06250000  0.06250000       0.012
  -0.06250000  0.06250000  0.06250000       0.012
   0.18750000  0.18750000  0.06250000       0.012
   0.31250000  0.18750000  0.06250000       0.023
   0.43750000  0.18750000  0.06250000       0.023
  -0.43750000  0.18750000  0.06250000       0.023
  -0.31250000  0.18750000  0.06250000       0.023
  -0.18750000  0.18750000  0.06250000       0.023
  -0.06250000  0.18750000  0.06250000       0.023
   0.31250000  0.31250000  0.06250000       0.012
   0.43750000  0.31250000  0.06250000       0.023
  -0.43750000  0.31250000  0.06250000       0.023
  -0.31250000  0.31250000  0.06250000       0.023
  -0.18750000  0.31250000  0.06250000       0.023
  -0.06250000  0.31250000  0.06250000       0.023
   0.43750000  0.43750000  0.06250000       0.012
  -0.43750000  0.43750000  0.06250000       0.023
  -0.31250000  0.43750000  0.06250000       0.023
  -0.18750000  0.43750000  0.06250000       0.023
  -0.06250000  0.43750000  0.06250000       0.023
  -0.43750000 -0.43750000  0.06250000       0.012
  -0.31250000 -0.43750000  0.06250000       0.023
  -0.18750000 -0.43750000  0.06250000       0.023
  -0.31250000 -0.31250000  0.06250000       0.012
  -0.18750000 -0.31250000  0.06250000       0.023
  -0.18750000 -0.18750000  0.06250000       0.012
   0.18750000  0.18750000  0.18750000       0.004
   0.31250000  0.18750000  0.18750000       0.012
   0.43750000  0.18750000  0.18750000       0.012
  -0.43750000  0.18750000  0.18750000       0.012
  -0.31250000  0.18750000  0.18750000       0.012
  -0.18750000  0.18750000  0.18750000       0.012
   0.31250000  0.31250000  0.18750000       0.012
   0.43750000  0.31250000  0.18750000       0.023
  -0.43750000  0.31250000  0.18750000       0.023
  -0.31250000  0.31250000  0.18750000       0.023
  -0.18750000  0.31250000  0.18750000       0.023
   0.43750000  0.43750000  0.18750000       0.012
  -0.43750000  0.43750000  0.18750000       0.023
  -0.31250000  0.43750000  0.18750000       0.023
  -0.18750000  0.43750000  0.18750000       0.023
  -0.43750000 -0.43750000  0.18750000       0.012
  -0.31250000 -0.43750000  0.18750000       0.023
  -0.31250000 -0.31250000  0.18750000       0.012
   0.31250000  0.31250000  0.31250000       0.004
   0.43750000  0.31250000  0.31250000       0.012
  -0.43750000  0.31250000  0.31250000       0.012
  -0.31250000  0.31250000  0.31250000       0.012
   0.43750000  0.43750000  0.31250000       0.012
  -0.43750000  0.43750000  0.31250000       0.023
  -0.31250000  0.43750000  0.31250000       0.023
  -0.43750000 -0.43750000  0.31250000       0.012
   0.43750000  0.43750000  0.43750000       0.004
  -0.43750000  0.43750000  0.43750000       0.012
 
 position of ions in fractional coordinates (direct lattice) 
   0.00000000  0.00000000  0.00000000
 
 position of ions in cartesian coordinates  (Angst):
   0.00000000  0.00000000  0.00000000
 


--------------------------------------------------------------------------------------------------------


 k-point  1 :   0.0625 0.0625 0.0625  plane waves:     332
 k-point  2 :   0.1875 0.0625 0.0625  plane waves:     331
 k-point  3 :   0.3125 0.0625 0.0625  plane waves:     337
 k-point  4 :   0.4375 0.0625 0.0625  plane waves:     342
 k-point  5 :  -0.4375 0.0625 0.0625  plane waves:     340
 k-point  6 :  -0.3125 0.0625 0.0625  plane waves:     338
 k-point  7 :  -0.1875 0.0625 0.0625  plane waves:     336
 k-point  8 :  -0.0625 0.0625 0.0625  plane waves:     334
 k-point  9 :   0.1875 0.1875 0.0625  plane waves:     335
 k-point 10 :   0.3125 0.1875 0.0625  plane waves:     334
 k-point 11 :   0.4375 0.1875 0.0625  plane waves:     337
 k-point 12 :  -0.4375 0.1875 0.0625  plane waves:     340
 k-point 13 :  -0.3125 0.1875 0.0625  plane waves:     341
 k-point 14 :  -0.1875 0.1875 0.0625  plane waves:     336
 k-point 15 :  -0.0625 0.1875 0.0625  plane waves:     334
 k-point 16 :   0.3125 0.3125 0.0625  plane waves:     339
 k-point 17 :   0.4375 0.3125 0.0625  plane waves:     334
 k-point 18 :  -0.4375 0.3125 0.0625  plane waves:     343
 k-point 19 :  -0.3125 0.3125 0.0625  plane waves:     344
 k-point 20 :  -0.1875 0.3125 0.0625  plane waves:     339
 k-point 21 :  -0.0625 0.3125 0.0625  plane waves:     338
 k-point 22 :   0.4375 0.4375 0.0625  plane waves:     333
 k-point 23 :  -0.4375 0.4375 0.0625  plane waves:     340
 k-point 24 :  -0.3125 0.4375 0.0625  plane waves:     342
 k-point 25 :  -0.1875 0.4375 0.0625  plane waves:     343
 k-point 26 :  -0.0625 0.4375 0.0625  plane waves:     339
 k-point 27 :  -0.4375-0.4375 0.0625  plane waves:     340
 k-point 28 :  -0.3125-0.4375 0.0625  plane waves:     337
 k-point 29 :  -0.1875-0.4375 0.0625  plane waves:     335
 k-point 30 :  -0.3125-0.3125 0.0625  plane waves:     331
 k-point 31 :  -0.1875-0.3125 0.0625  plane waves:     332
 k-point 32 :  -0.1875-0.1875 0.0625  plane waves:     338
 k-point 33 :   0.1875 0.1875 0.1875  plane waves:     332
 k-point 34 :   0.3125 0.1875 0.1875  plane waves:     333
 k-point 35 :   0.4375 0.1875 0.1875  plane waves:     333
 k-point 36 :  -0.4375 0.1875 0.1875  plane waves:     343
 k-point 37 :  -0.3125 0.1875 0.1875  plane waves:     339
 k-point 38 :  -0.1875 0.1875 0.1875  plane waves:     331
 k-point 39 :   0.3125 0.3125 0.1875  plane waves:     334
 k-point 40 :   0.4375 0.3125 0.1875  plane waves:     336
 k-point 41 :  -0.4375 0.3125 0.1875  plane waves:     339
 k-point 42 :  -0.3125 0.3125 0.1875  plane waves:     343
 k-point 43 :  -0.1875 0.3125 0.1875  plane waves:     338
 k-point 44 :   0.4375 0.4375 0.1875  plane waves:     336
 k-point 45 :  -0.4375 0.4375 0.1875  plane waves:     342
 k-point 46 :  -0.3125 0.4375 0.1875  plane waves:     343
 k-point 47 :  -0.1875 0.4375 0.1875  plane waves:     340
 k-point 48 :  -0.4375-0.4375 0.1875  plane waves:     343
 k-point 49 :  -0.3125-0.4375 0.1875  plane waves:     340
 k-point 50 :  -0.3125-0.3125 0.1875  plane waves:     338
 k-point 51 :   0.3125 0.3125 0.3125  plane waves:     344
 k-point 52 :   0.4375 0.3125 0.3125  plane waves:     342
 k-point 53 :  -0.4375 0.3125 0.3125  plane waves:     337
 k-point 54 :  -0.3125 0.3125 0.3125  plane waves:     349
 k-point 55 :   0.4375 0.4375 0.3125  plane waves:     339
 k-point 56 :  -0.4375 0.4375 0.3125  plane waves:     341
 k-point 57 :  -0.3125 0.4375 0.3125  plane waves:     339
 k-point 58 :  -0.4375-0.4375 0.3125  plane waves:     341
 k-point 59 :   0.4375 0.4375 0.4375  plane waves:     338
 k-point 60 :  -0.4375 0.4375 0.4375  plane waves:     342

 maximum number of plane-waves:       349
 maximum index in each direction: 
   IXMAX=    5   IYMAX=    5   IZMAX=    4
   IXMIN=   -5   IYMIN=   -5   IZMIN=   -5

 WARNING: aliasing errors must be expected set NGX to  22 to avoid them
 WARNING: aliasing errors must be expected set NGY to  22 to avoid them
 WARNING: aliasing errors must be expected set NGZ to  20 to avoid them
 aliasing errors are usually negligible using standard VASP settings
 and one can safely disregard these warnings

 total amount of memory used by VASP on root node    38011. kBytes
========================================================================

   base      :      30000. kBytes
   nonl-proj :       3020. kBytes
   grid      :       1806. kBytes
   one-center:         15. kBytes
   wavefun   :       3170. kBytes
 
     INWAV:  cpu time    0.00: real time    0.00
 Broyden mixing: mesh for mixing (old mesh)
   NGX =  9   NGY =  9   NGZ =  9
  (NGX  = 32   NGY  = 32   NGZ  = 32)
  gives a total of    729 points

 initial charge density was supplied:
 charge density of overlapping atoms calculated
 number of electron      11.0000000 magnetization 
 keeping initial charge density in first step


--------------------------------------------------------------------------------------------------------


 Maximum index for augmentation-charges         8589 (set IRDMAX)


--------------------------------------------------------------------------------------------------------


 First call to EWALD:  gamma=   0.625
 Maximum number of real-space cells 3x 3x 3
 Maximum number of reciprocal cells 3x 3x 3

    FEWALD:  cpu time    0.00: real time    0.00


----------------------------------------- Iteration    1(   1)  ---------------------------------------


    POTLOK:  cpu time    0.04: real time    0.04
    SETDIJ:  cpu time    0.01: real time    0.01
     EDDAV:  cpu time    0.85: real time    0.85
       DOS:  cpu time    0.00: real time    0.00
    --------------------------------------------
      LOOP:  cpu time    0.91: real time    0.94

 eigenvalue-minimisations  :  1280
 total energy-change (2. order) : 0.2785043E+02  (-0.4415246E+03)
 number of electron      11.0000000 magnetization 
 augmentation part       11.0000000 magnetization 

 Free energy of the ion-electron system (eV)
  ---------------------------------------------------
  alpha Z        PSCENC =        37.36166247
  Ewald energy   TEWEN  =      -887.81347007
  -Hartree energ DENC   =      -248.22988992
  -exchange      EXHF   =         0.00000000
  -V(xc)+E(xc)   XCENC  =       -11.08070099
  PAW double counting   =      1003.46214933     -957.34927423
  entropy T*S    EENTRO =        -0.00186210
  eigenvalues    EBANDS =        54.26153963
  atomic energy  EATOM  =      1037.24027811
  ---------------------------------------------------
  free energy    TOTEN  =        27.85043222 eV

  energy without entropy =       27.85229432  energy(sigma->0) =       27.85105292


--------------------------------------------------------------------------------------------------------




----------------------------------------- Iteration    1(   2)  ---------------------------------------


     EDDAV:  cpu time    0.77: real time    0.77
       DOS:  cpu time    0.01: real time    0.00
    --------------------------------------------
      LOOP:  cpu time    0.77: real time    0.81

 eigenvalue-minimisations  :  1109
 total energy-change (2. order) :-0.3025183E+02  (-0.2781590E+02)
 number of electron      11.0000000 magnetization 
 augmentation part       11.0000000 magnetization 

 Free energy of the ion-electron system (eV)
  ---------------------------------------------------
  alpha Z        PSCENC =        37.36166247
  Ewald energy   TEWEN  =      -887.81347007
  -Hartree energ DENC   =      -248.22988992
  -exchange      EXHF   =         0.00000000
  -V(xc)+E(xc)   XCENC  =       -11.08070099
  PAW double counting   =      1003.46214933     -957.34927423
  entropy T*S    EENTRO =        -0.00012029
  eigenvalues    EBANDS =        24.00796530
  atomic energy  EATOM  =      1037.24027811
  ---------------------------------------------------
  free energy    TOTEN  =        -2.40140030 eV

  energy without entropy =       -2.40128001  energy(sigma->0) =       -2.40136020


--------------------------------------------------------------------------------------------------------




----------------------------------------- Iteration    1(   3)  ---------------------------------------


     EDDAV:  cpu time    0.86: real time    0.86
       DOS:  cpu time    0.00: real time    0.01
    --------------------------------------------
      LOOP:  cpu time    0.87: real time    0.93

 eigenvalue-minimisations  :  1248
 total energy-change (2. order) :-0.2489254E+00  (-0.2488768E+00)
 number of electron      11.0000000 magnetization 
 augmentation part       11.0000000 magnetization 

 Free energy of the ion-electron system (eV)
  ---------------------------------------------------
  alpha Z        PSCENC =        37.36166247
  Ewald energy   TEWEN  =      -887.81347007
  -Hartree energ DENC   =      -248.22988992
  -exchange      EXHF   =         0.00000000
  -V(xc)+E(xc)   XCENC  =       -11.08070099
  PAW double counting   =      1003.46214933     -957.34927423
  entropy T*S    EENTRO =        -0.00025747
  eigenvalues    EBANDS =        23.75917709
  atomic energy  EATOM  =      1037.24027811
  ---------------------------------------------------
  free energy    TOTEN  =        -2.65032569 eV

  energy without entropy =       -2.65006822  energy(sigma->0) =       -2.65023987


--------------------------------------------------------------------------------------------------------




----------------------------------------- Iteration    1(   4)  ---------------------------------------


     EDDAV:  cpu time    1.03: real time    1.03
       DOS:  cpu time    0.00: real time    0.01
    --------------------------------------------
      LOOP:  cpu time    1.04: real time    1.10

 eigenvalue-minimisations  :  1259
 total energy-change (2. order) :-0.5795748E-03  (-0.5795618E-03)
 number of electron      11.0000000 magnetization 
 augmentation part       11.0000000 magnetization 

 Free energy of the ion-electron system (eV)
  ---------------------------------------------------
  alpha Z        PSCENC =        37.36166247
  Ewald energy   TEWEN  =      -887.81347007
  -Hartree energ DENC   =      -248.22988992
  -exchange      EXHF   =         0.00000000
  -V(xc)+E(xc)   XCENC  =       -11.08070099
  PAW double counting   =      1003.46214933     -957.34927423
  entropy T*S    EENTRO =        -0.00025755
  eigenvalues    EBANDS =        23.75859760
  atomic energy  EATOM  =      1037.24027811
  ---------------------------------------------------
  free energy    TOTEN  =        -2.65090527 eV

  energy without entropy =       -2.65064771  energy(sigma->0) =       -2.65081941


--------------------------------------------------------------------------------------------------------




----------------------------------------- Iteration    1(   5)  ---------------------------------------


     EDDAV:  cpu time    0.76: real time    0.76
       DOS:  cpu time    0.01: real time    0.01
    CHARGE:  cpu time    0.07: real time    0.07
    MIXING:  cpu time    0.00: real time    0.00
    --------------------------------------------
      LOOP:  cpu time    0.84: real time    0.85

 eigenvalue-minimisations  :  1055
 total energy-change (2. order) :-0.5367316E-05  (-0.5367783E-05)
 number of electron      10.9999970 magnetization 
 augmentation part        5.1541050 magnetization 

 Broyden mixing:
  rms(total) = 0.26153E+00    rms(broyden)= 0.26147E+00
  rms(prec ) = 0.88872E+00
  weight for this iteration     100.00

 Free energy of the ion-electron system (eV)
  ---------------------------------------------------
  alpha Z        PSCENC =        37.36166247
  Ewald energy   TEWEN  =      -887.81347007
  -Hartree energ DENC   =      -248.22988992
  -exchange      EXHF   =         0.00000000
  -V(xc)+E(xc)   XCENC  =       -11.08070099
  PAW double counting   =      1003.46214933     -957.34927423
  entropy T*S    EENTRO =        -0.00025755
  eigenvalues    EBANDS =        23.75859222
  atomic energy  EATOM  =      1037.24027811
  ---------------------------------------------------
  free energy    TOTEN  =        -2.65091063 eV

  energy without entropy =       -2.65065308  energy(sigma->0) =       -2.65082478


--------------------------------------------------------------------------------------------------------




----------------------------------------- Iteration    1(   6)  ---------------------------------------


    POTLOK:  cpu time    0.04: real time    0.04
    SETDIJ:  cpu time    0.01: real time    0.01
     EDDAV:  cpu time    0.78: real time    0.78
       DOS:  cpu time    0.00: real time    0.01
    CHARGE:  cpu time    0.07: real time    0.07
    MIXING:  cpu time    0.00: real time    0.00
    --------------------------------------------
      LOOP:  cpu time    0.91: real time    0.99

 eigenvalue-minimisations  :  1123
 total energy-change (2. order) : 0.1489691E+00  (-0.8464170E-01)
 number of electron      10.9999969 magnetization 
 augmentation part        5.2964369 magnetization 

 Broyden mixing:
  rms(total) = 0.19565E+00    rms(broyden)= 0.19564E+00
  rms(prec ) = 0.22987E+00
  weight for this iteration     100.00

 eigenvalues of (default mixing * dielectric matrix)
  average eigenvalue GAMMA=   0.7220
  0.7220

 Free energy of the ion-electron system (eV)
  ---------------------------------------------------
  alpha Z        PSCENC =        37.36166247
  Ewald energy   TEWEN  =      -887.81347007
  -Hartree energ DENC   =      -239.90501201
  -exchange      EXHF   =         0.00000000
  -V(xc)+E(xc)   XCENC  =       -11.38779829
  PAW double counting   =      1013.44922343     -967.79011594
  entropy T*S    EENTRO =        -0.00026772
  eigenvalues    EBANDS =        16.34355853
  atomic energy  EATOM  =      1037.24027811
  ---------------------------------------------------
  free energy    TOTEN  =        -2.50194150 eV

  energy without entropy =       -2.50167378  energy(sigma->0) =       -2.50185226


--------------------------------------------------------------------------------------------------------




----------------------------------------- Iteration    1(   7)  ---------------------------------------


    POTLOK:  cpu time    0.04: real time    0.04
    SETDIJ:  cpu time    0.01: real time    0.01
     EDDAV:  cpu time    0.87: real time    0.87
       DOS:  cpu time    0.00: real time    0.01
    CHARGE:  cpu time    0.07: real time    0.07
    MIXING:  cpu time    0.00: real time    0.00
    --------------------------------------------
      LOOP:  cpu time    1.00: real time    1.11

 eigenvalue-minimisations  :  1139
 total energy-change (2. order) : 0.1426361E-02  (-0.2048660E-03)
 number of electron      10.9999969 magnetization 
 augmentation part        5.3001676 magnetization 

 Broyden mixing:
  rms(total) = 0.11546E+00    rms(broyden)= 0.11546E+00
  rms(prec ) = 0.13448E+00
  weight for this iteration     100.00

 eigenvalues of (default mixing * dielectric matrix)
  average eigenvalue GAMMA=   1.7716
  1.0182  2.5249

 Free energy of the ion-electron system (eV)
  ---------------------------------------------------
  alpha Z        PSCENC =        37.36166247
  Ewald energy   TEWEN  =      -887.81347007
  -Hartree energ DENC   =      -239.08501985
  -exchange      EXHF   =         0.00000000
  -V(xc)+E(xc)   XCENC  =       -11.42346964
  PAW double counting   =      1024.86469858     -979.55315197
  entropy T*S    EENTRO =        -0.00028256
  eigenvalues    EBANDS =        15.90823979
  atomic energy  EATOM  =      1037.24027811
  ---------------------------------------------------
  free energy    TOTEN  =        -2.50051514 eV

  energy without entropy =       -2.50023258  energy(sigma->0) =       -2.50042095


--------------------------------------------------------------------------------------------------------




----------------------------------------- Iteration    1(   8)  ---------------------------------------


    POTLOK:  cpu time    0.04: real time    0.04
    SETDIJ:  cpu time    0.01: real time    0.01
     EDDAV:  cpu time    0.86: real time    0.87
       DOS:  cpu time    0.00: real time    0.01
    CHARGE:  cpu time    0.06: real time    0.07
    MIXING:  cpu time    0.00: real time    0.00
    --------------------------------------------
      LOOP:  cpu time    0.99: real time    1.02

 eigenvalue-minimisations  :  1125
 total energy-change (2. order) : 0.6499504E-03  (-0.8147997E-04)
 number of electron      10.9999969 magnetization 
 augmentation part        5.3022673 magnetization 

 Broyden mixing:
  rms(total) = 0.30855E-02    rms(broyden)= 0.30845E-02
  rms(prec ) = 0.57590E-02
  weight for this iteration     100.00

 eigenvalues of (default mixing * dielectric matrix)
  average eigenvalue GAMMA=   1.7332
  1.0131  2.4766  1.7099

 Free energy of the ion-electron system (eV)
  ---------------------------------------------------
  alpha Z        PSCENC =        37.36166247
  Ewald energy   TEWEN  =      -887.81347007
  -Hartree energ DENC   =      -238.11142193
  -exchange      EXHF   =         0.00000000
  -V(xc)+E(xc)   XCENC  =       -11.46671771
  PAW double counting   =      1041.34762881     -996.51503190
  entropy T*S    EENTRO =        -0.00028979
  eigenvalues    EBANDS =        15.45749682
  atomic energy  EATOM  =      1037.24027811
  ---------------------------------------------------
  free energy    TOTEN  =        -2.49986519 eV

  energy without entropy =       -2.49957540  energy(sigma->0) =       -2.49976859


--------------------------------------------------------------------------------------------------------




----------------------------------------- Iteration    1(   9)  ---------------------------------------


    POTLOK:  cpu time    0.04: real time    0.04
    SETDIJ:  cpu time    0.01: real time    0.02
     EDDAV:  cpu time    0.51: real time    0.52
       DOS:  cpu time    0.00: real time    0.01
    --------------------------------------------
      LOOP:  cpu time    0.57: real time    0.59

 eigenvalue-minimisations  :   589
 total energy-change (2. order) :-0.2461655E-04  (-0.1623205E-05)
 number of electron      10.9999969 magnetization 
 augmentation part        5.3022673 magnetization 

 Free energy of the ion-electron system (eV)
  ---------------------------------------------------
  alpha Z        PSCENC =        37.36166247
  Ewald energy   TEWEN  =      -887.81347007
  -Hartree energ DENC   =      -238.11852260
  -exchange      EXHF   =         0.00000000
  -V(xc)+E(xc)   XCENC  =       -11.46701331
  PAW double counting   =      1041.63237318     -996.77808094
  entropy T*S    EENTRO =        -0.00028669
  eigenvalues    EBANDS =        15.44317006
  atomic energy  EATOM  =      1037.24027811
  ---------------------------------------------------
  free energy    TOTEN  =        -2.49988981 eV

  energy without entropy =       -2.49960311  energy(sigma->0) =       -2.49979424


--------------------------------------------------------------------------------------------------------




 average (electrostatic) potential at core
  the test charge radii are     1.1249
  (the norm of the test charge is              1.0000)
       1 -73.5728
 
 
 
 E-fermi :   5.0500     XC(G=0): -10.5698     alpha+bet :-10.0823


 k-point     1 :       0.0625    0.0625    0.0625
  band No.  band energies     occupation 
      1      -0.7825      2.00000
      2       1.0302      2.00000
      3       1.0658      2.00000
      4       1.0658      2.00000
      5       1.6504      2.00000
      6       1.6504      2.00000
      7      20.0020      0.00000
      8      21.1127      0.00000
      9      21.9773      0.00000

 k-point     2 :       0.1875    0.0625    0.0625
  band No.  band energies     occupation 
      1      -0.3007      2.00000
      2       0.9622      2.00000
      3       1.1544      2.00000
      4       1.1771      2.00000
      5       1.5781      2.00000
      6       1.7090      2.00000
      7      17.8639      0.00000
      8      19.4862      0.00000
      9      21.5229      0.00000

 k-point     3 :       0.3125    0.0625    0.0625
  band No.  band energies     occupation 
      1       0.2587      2.00000
      2       1.1345      2.00000
      3       1.1900      2.00000
      4       1.4497      2.00000
      5       1.6865      2.00000
      6       2.0780      2.00000
      7      13.4938      0.00000
      8      18.8627      0.00000
      9      20.9670      0.00000

 k-point     4 :       0.4375    0.0625    0.0625
  band No.  band energies     occupation 
      1       0.1941      2.00000
      2       1.0582      2.00000
      3       1.1003      2.00000
      4       1.9654      2.00000
      5       1.9822      2.00000
      6       3.8334      2.00000
      7       9.5040      0.00000
      8      18.6029      0.00000
      9      19.9206      0.00000

 k-point     5 :      -0.4375    0.0625    0.0625
  band No.  band energies     occupation 
      1       0.1481      2.00000
      2       1.0164      2.00000
      3       1.0760      2.00000
      4       2.0172      2.00000
      5       2.1363      2.00000
      6       5.3720     -0.04523
      7       7.4679      0.00000
      8      18.9732      0.00000
      9      19.5223      0.00000

 k-point     6 :      -0.3125    0.0625    0.0625
  band No.  band energies     occupation 
      1       0.2262      2.00000
      2       1.0788      2.00000
      3       1.1429      2.00000
      4       1.7454      2.00000
      5       2.0261      2.00000
      6       3.0654      2.00000
      7      10.7605      0.00000
      8      19.4305      0.00000
      9      19.5824      0.00000

 k-point     7 :      -0.1875    0.0625    0.0625
  band No.  band energies     occupation 
      1       0.1659      2.00000
      2       1.0747      2.00000
      3       1.2098      2.00000
      4       1.2263      2.00000
      5       1.7243      2.00000
      6       1.7898      2.00000
      7      14.9309      0.00000
      8      19.9967      0.00000
      9      20.1123      0.00000

 k-point     8 :      -0.0625    0.0625    0.0625
  band No.  band energies     occupation 
      1      -0.5311      2.00000
      2       0.9684      2.00000
      3       1.1323      2.00000
      4       1.1325      2.00000
      5       1.5882      2.00000
      6       1.6880      2.00000
      7      19.2365      0.00000
      8      20.4376      0.00000
      9      20.9047      0.00000

 k-point     9 :       0.1875    0.1875    0.0625
  band No.  band energies     occupation 
      1      -0.0723      2.00000
      2       0.8441      2.00000
      3       1.2534      2.00000
      4       1.2617      2.00000
      5       1.5376      2.00000
      6       1.7581      2.00000
      7      18.0638      0.00000
      8      19.4531      0.00000
      9      19.9769      0.00000

 k-point    10 :       0.3125    0.1875    0.0625
  band No.  band energies     occupation 
      1       0.4875      2.00000
      2       0.7804      2.00000
      3       1.1927      2.00000
      4       1.4205      2.00000
      5       1.7579      2.00000
      6       2.1643      2.00000
      7      15.3154      0.00000
      8      17.0962      0.00000
      9      19.9431      0.00000

 k-point    11 :       0.4375    0.1875    0.0625
  band No.  band energies     occupation 
      1       0.4287      2.00000
      2       0.9940      2.00000
      3       1.2389      2.00000
      4       1.4026      2.00000
      5       2.0397      2.00000
      6       3.7874      2.00000
      7      11.1733      0.00000
      8      16.7163      0.00000
      9      17.8882      0.00000

 k-point    12 :      -0.4375    0.1875    0.0625
  band No.  band energies     occupation 
      1       0.3716      2.00000
      2       0.9024      2.00000
      3       1.2745      2.00000
      4       1.5960      2.00000
      5       2.1150      2.00000
      6       6.2567      0.00000
      7       7.7451      0.00000
      8      16.3589      0.00000
      9      17.1955      0.00000

 k-point    13 :      -0.3125    0.1875    0.0625
  band No.  band energies     occupation 
      1       0.4420      2.00000
      2       0.9487      2.00000
      3       1.2769      2.00000
      4       1.5155      2.00000
      5       1.9566      2.00000
      6       4.5920      2.00562
      7       9.9418      0.00000
      8      15.6836      0.00000
      9      18.4094      0.00000

 k-point    14 :      -0.1875    0.1875    0.0625
  band No.  band energies     occupation 
      1       0.5880      2.00000
      2       0.9223      2.00000
      3       1.1494      2.00000
      4       1.4120      2.00000
      5       1.6381      2.00000
      6       2.6926      2.00000
      7      13.9132      0.00000
      8      15.7963      0.00000
      9      20.2416      0.00000

 k-point    15 :      -0.0625    0.1875    0.0625
  band No.  band energies     occupation 
      1       0.1049      2.00000
      2       0.8848      2.00000
      3       1.2288      2.00000
      4       1.2587      2.00000
      5       1.5697      2.00000
      6       1.8396      2.00000
      7      16.5347      0.00000
      8      18.2893      0.00000
      9      21.2674      0.00000

 k-point    16 :       0.3125    0.3125    0.0625
  band No.  band energies     occupation 
      1       0.4780      2.00000
      2       0.5311      2.00000
      3       1.5881      2.00000
      4       1.6510      2.00000
      5       1.9555      2.00000
      6       2.5255      2.00000
      7      15.6856      0.00000
      8      16.6716      0.00000
      9      17.1841      0.00000

 k-point    17 :       0.4375    0.3125    0.0625
  band No.  band energies     occupation 
      1       0.4070      2.00000
      2       0.5135      2.00000
      3       1.5328      2.00000
      4       1.8338      2.00000
      5       2.0637      2.00000
      6       4.1659      2.00000
      7      13.2757      0.00000
      8      14.7198      0.00000
      9      15.2190      0.00000

 k-point    18 :      -0.4375    0.3125    0.0625
  band No.  band energies     occupation 
      1       0.4229      2.00000
      2       0.7142      2.00000
      3       1.3762      2.00000
      4       1.6844      2.00000
      5       2.1458      2.00000
      6       6.6653      0.00000
      7       9.7010      0.00000
      8      13.0356      0.00000
      9      15.3796      0.00000

 k-point    19 :      -0.3125    0.3125    0.0625
  band No.  band energies     occupation 
      1       0.6001      2.00000
      2       0.9284      2.00000
      3       1.1476      2.00000
      4       1.5799      2.00000
      5       1.9637      2.00000
      6       6.7291      0.00000
      7       9.8419      0.00000
      8      11.9440      0.00000
      9      16.5509      0.00000

 k-point    20 :      -0.1875    0.3125    0.0625
  band No.  band energies     occupation 
      1       0.7007      2.00000
      2       0.8989      2.00000
      3       1.1475      2.00000
      4       1.5139      2.00000
      5       1.7713      2.00000
      6       4.4257      2.00009
      7      11.6717      0.00000
      8      13.6072      0.00000
      9      18.3028      0.00000

 k-point    21 :      -0.0625    0.3125    0.0625
  band No.  band energies     occupation 
      1       0.3561      2.00000
      2       1.0876      2.00000
      3       1.2260      2.00000
      4       1.4090      2.00000
      5       1.8751      2.00000
      6       2.7470      2.00000
      7      12.2383      0.00000
      8      17.7355      0.00000
      9      20.1165      0.00000

 k-point    22 :       0.4375    0.4375    0.0625
  band No.  band energies     occupation 
      1       0.2172      2.00000
      2       0.2525      2.00000
      3       2.0094      2.00000
      4       2.0574      2.00000
      5       2.1623      2.00000
      6       5.2262     -0.01590
      7      12.0870      0.00000
      8      14.0956      0.00000
      9      14.8147      0.00000

 k-point    23 :      -0.4375    0.4375    0.0625
  band No.  band energies     occupation 
      1       0.2265      2.00000
      2       0.3016      2.00000
      3       1.9003      2.00000
      4       2.0091      2.00000
      5       2.2284      2.00000
      6       7.1530      0.00000
      7      10.2731      0.00000
      8      12.5376      0.00000
      9      14.0678      0.00000

 k-point    24 :      -0.3125    0.4375    0.0625
  band No.  band energies     occupation 
      1       0.3894      2.00000
      2       0.6514      2.00000
      3       1.4609      2.00000
      4       1.7779      2.00000
      5       2.1317      2.00000
      6       8.3086      0.00000
      7       9.3488      0.00000
      8      11.0272      0.00000
      9      15.0767      0.00000

 k-point    25 :      -0.1875    0.4375    0.0625
  band No.  band energies     occupation 
      1       0.5207      2.00000
      2       0.8510      2.00000
      3       1.3708      2.00000
      4       1.4343      2.00000
      5       2.0563      2.00000
      6       6.9279      0.00000
      7       8.1320      0.00000
      8      14.0886      0.00000
      9      16.7637      0.00000

 k-point    26 :      -0.0625    0.4375    0.0625
  band No.  band energies     occupation 
      1       0.2490      2.00000
      2       0.9877      2.00000
      3       1.1542      2.00000
      4       1.8052      2.00000
      5       2.0941      2.00000
      6       4.9379      1.80335
      7       8.4826      0.00000
      8      17.7893      0.00000
      9      18.6336      0.00000

 k-point    27 :      -0.4375   -0.4375    0.0625
  band No.  band energies     occupation 
      1       0.1362      2.00000
      2       0.1886      2.00000
      3       2.0801      2.00000
      4       2.1753      2.00000
      5       2.2351      2.00000
      6       6.6856      0.00000
      7      10.1893      0.00000
      8      13.7054      0.00000
      9      14.4095      0.00000

 k-point    28 :      -0.3125   -0.4375    0.0625
  band No.  band energies     occupation 
      1       0.2973      2.00000
      2       0.3716      2.00000
      3       1.7441      2.00000
      4       1.9825      2.00000
      5       2.1570      2.00000
      6       5.6484     -0.00020
      7      12.0456      0.00000
      8      13.0436      0.00000
      9      14.4344      0.00000

 k-point    29 :      -0.1875   -0.4375    0.0625
  band No.  band energies     occupation 
      1       0.4495      2.00000
      2       0.8423      2.00000
      3       1.2767      2.00000
      4       1.5394      2.00000
      5       2.1258      2.00000
      6       5.1116      0.50523
      7      10.3166      0.00000
      8      15.3271      0.00000
      9      16.0021      0.00000

 k-point    30 :      -0.3125   -0.3125    0.0625
  band No.  band energies     occupation 
      1       0.3458      2.00000
      2       0.3805      2.00000
      3       1.8488      2.00000
      4       1.8568      2.00000
      5       2.0613      2.00000
      6       3.7420      2.00000
      7      14.3525      0.00000
      8      14.9339      0.00000
      9      15.5887      0.00000

 k-point    31 :      -0.1875   -0.3125    0.0625
  band No.  band energies     occupation 
      1       0.5211      2.00000
      2       0.6795      2.00000
      3       1.3050      2.00000
      4       1.6236      2.00000
      5       1.9402      2.00000
      6       2.9549      2.00000
      7      14.2290      0.00000
      8      15.9740      0.00000
      9      17.3880      0.00000

 k-point    32 :      -0.1875   -0.1875    0.0625
  band No.  band energies     occupation 
      1       0.3939      2.00000
      2       0.6864      2.00000
      3       1.3548      2.00000
      4       1.4415      2.00000
      5       1.7729      2.00000
      6       1.8511      2.00000
      7      16.8440      0.00000
      8      17.9904      0.00000
      9      19.5523      0.00000

 k-point    33 :       0.1875    0.1875    0.1875
  band No.  band energies     occupation 
      1      -0.1185      2.00000
      2       1.0517      2.00000
      3       1.1654      2.00000
      4       1.1654      2.00000
      5       1.6596      2.00000
      6       1.6596      2.00000
      7      16.3279      0.00000
      8      20.5824      0.00000
      9      21.5253      0.00000

 k-point    34 :       0.3125    0.1875    0.1875
  band No.  band energies     occupation 
      1       0.3774      2.00000
      2       0.9175      2.00000
      3       1.2525      2.00000
      4       1.2958      2.00000
      5       1.5120      2.00000
      6       2.1387      2.00000
      7      15.1413      0.00000
      8      16.9840      0.00000
      9      21.8616      0.00000

 k-point    35 :       0.4375    0.1875    0.1875
  band No.  band energies     occupation 
      1       0.6517      2.00000
      2       0.9397      2.00000
      3       1.2816      2.00000
      4       1.3765      2.00000
      5       1.6147      2.00000
      6       3.4277      2.00000
      7      12.6953      0.00000
      8      14.6123      0.00000
      9      20.6245      0.00000

 k-point    36 :      -0.4375    0.1875    0.1875
  band No.  band energies     occupation 
      1       0.4691      2.00000
      2       0.9130      2.00000
      3       1.3160      2.00000
      4       1.5190      2.00000
      5       1.9690      2.00000
      6       5.6411     -0.00024
      7       8.9236      0.00000
      8      14.7859      0.00000
      9      18.7078      0.00000

 k-point    37 :      -0.3125    0.1875    0.1875
  band No.  band energies     occupation 
      1       0.3919      2.00000
      2       0.9060      2.00000
      3       1.3510      2.00000
      4       1.4441      2.00000
      5       2.1537      2.00000
      6       5.6169     -0.00046
      7       8.8615      0.00000
      8      15.7918      0.00000
      9      17.4781      0.00000

 k-point    38 :      -0.1875    0.1875    0.1875
  band No.  band energies     occupation 
      1       0.4458      2.00000
      2       0.8843      2.00000
      3       1.2561      2.00000
      4       1.4384      2.00000
      5       2.0627      2.00000
      6       3.2303      2.00000
      7      12.6122      0.00000
      8      17.2715      0.00000
      9      17.5368      0.00000

 k-point    39 :       0.3125    0.3125    0.1875
  band No.  band energies     occupation 
      1       0.3916      2.00000
      2       1.0623      2.00000
      3       1.1474      2.00000
      4       1.3015      2.00000
      5       1.9341      2.00000
      6       2.2682      2.00000
      7      13.6885      0.00000
      8      18.5400      0.00000
      9      19.5821      0.00000

 k-point    40 :       0.4375    0.3125    0.1875
  band No.  band energies     occupation 
      1       0.6198      2.00000
      2       0.9088      2.00000
      3       1.0414      2.00000
      4       1.5938      2.00000
      5       1.8394      2.00000
      6       3.6005      2.00000
      7      12.8617      0.00000
      8      14.7530      0.00000
      9      17.7545      0.00000

 k-point    41 :      -0.4375    0.3125    0.1875
  band No.  band energies     occupation 
      1       0.7430      2.00000
      2       0.7951      2.00000
      3       1.0459      2.00000
      4       1.6461      2.00000
      5       1.9549      2.00000
      6       5.6978     -0.00005
      7      10.8500      0.00000
      8      12.8070      0.00000
      9      15.8832      0.00000

 k-point    42 :      -0.3125    0.3125    0.1875
  band No.  band energies     occupation 
      1       0.5999      2.00000
      2       0.7766      2.00000
      3       1.2005      2.00000
      4       1.5912      2.00000
      5       2.1085      2.00000
      6       7.5007      0.00000
      7       8.5257      0.00000
      8      13.5138      0.00000
      9      14.6657      0.00000

 k-point    43 :      -0.1875    0.3125    0.1875
  band No.  band energies     occupation 
      1       0.5498      2.00000
      2       0.7119      2.00000
      3       1.1973      2.00000
      4       1.7711      2.00000
      5       1.9961      2.00000
      6       4.8435      2.05638
      7      11.9995      0.00000
      8      13.8583      0.00000
      9      15.3377      0.00000

 k-point    44 :       0.4375    0.4375    0.1875
  band No.  band energies     occupation 
      1       0.3919      2.00000
      2       0.6795      2.00000
      3       1.4641      2.00000
      4       1.6051      2.00000
      5       2.1508      2.00000
      6       4.5059      2.00082
      7      11.7221      0.00000
      8      15.0224      0.00000
      9      16.2574      0.00000

 k-point    45 :      -0.4375    0.4375    0.1875
  band No.  band energies     occupation 
      1       0.4617      2.00000
      2       0.5649      2.00000
      3       1.3761      2.00000
      4       1.8573      2.00000
      5       2.1325      2.00000
      6       6.3460      0.00000
      7      11.3153      0.00000
      8      12.6955      0.00000
      9      13.6456      0.00000

 k-point    46 :      -0.3125    0.4375    0.1875
  band No.  band energies     occupation 
      1       0.5660      2.00000
      2       0.7627      2.00000
      3       1.1127      2.00000
      4       1.7100      2.00000
      5       2.2257      2.00000
      6       8.8748      0.00000
      7       9.9007      0.00000
      8      11.1004      0.00000
      9      12.4604      0.00000

 k-point    47 :      -0.1875    0.4375    0.1875
  band No.  band energies     occupation 
      1       0.6503      2.00000
      2       0.7671      2.00000
      3       1.0623      2.00000
      4       1.7063      2.00000
      5       2.1208      2.00000
      6       7.2142      0.00000
      7      10.2549      0.00000
      8      12.1632      0.00000
      9      13.6874      0.00000

 k-point    48 :      -0.4375   -0.4375    0.1875
  band No.  band energies     occupation 
      1       0.2636      2.00000
      2       0.4479      2.00000
      3       1.7707      2.00000
      4       1.9017      2.00000
      5       2.1689      2.00000
      6       7.5777      0.00000
      7      10.1949      0.00000
      8      11.2380      0.00000
      9      15.1828      0.00000

 k-point    49 :      -0.3125   -0.4375    0.1875
  band No.  band energies     occupation 
      1       0.3947      2.00000
      2       0.5011      2.00000
      3       1.5133      2.00000
      4       1.8517      2.00000
      5       2.2265      2.00000
      6       7.9376      0.00000
      7      10.3698      0.00000
      8      11.4536      0.00000
      9      13.1935      0.00000

 k-point    50 :      -0.3125   -0.3125    0.1875
  band No.  band energies     occupation 
      1       0.3159      2.00000
      2       0.5257      2.00000
      3       1.6563      2.00000
      4       1.7753      2.00000
      5       2.1832      2.00000
      6       6.0198      0.00000
      7      11.0232      0.00000
      8      12.7283      0.00000
      9      15.5483      0.00000

 k-point    51 :       0.3125    0.3125    0.3125
  band No.  band energies     occupation 
      1       0.2047      2.00000
      2       1.1332      2.00000
      3       1.1332      2.00000
      4       1.8702      2.00000
      5       1.8702      2.00000
      6       2.1857      2.00000
      7      12.0274      0.00000
      8      20.0338      0.00000
      9      20.7389      0.00000

 k-point    52 :       0.4375    0.3125    0.3125
  band No.  band energies     occupation 
      1       0.3766      2.00000
      2       1.0360      2.00000
      3       1.2161      2.00000
      4       1.6172      2.00000
      5       1.8083      2.00000
      6       3.5257      2.00000
      7      10.9870      0.00000
      8      16.6304      0.00000
      9      20.3042      0.00000

 k-point    53 :      -0.4375    0.3125    0.3125
  band No.  band energies     occupation 
      1       0.6497      2.00000
      2       0.9426      2.00000
      3       1.2279      2.00000
      4       1.4712      2.00000
      5       1.8260      2.00000
      6       5.4609     -0.01337
      7      10.6649      0.00000
      8      12.6560      0.00000
      9      18.5370      0.00000

 k-point    54 :      -0.3125    0.3125    0.3125
  band No.  band energies     occupation 
      1       0.4573      2.00000
      2       0.8398      2.00000
      3       1.3211      2.00000
      4       1.6624      2.00000
      5       2.0249      2.00000
      6       7.9526      0.00000
      7       8.9810      0.00000
      8      11.3410      0.00000
      9      16.6107      0.00000

 k-point    55 :       0.4375    0.4375    0.3125
  band No.  band energies     occupation 
      1       0.3010      2.00000
      2       0.9964      2.00000
      3       1.2190      2.00000
      4       1.5798      2.00000
      5       2.1260      2.00000
      6       4.2231      2.00000
      7       9.7008      0.00000
      8      18.1713      0.00000
      9      18.3290      0.00000

 k-point    56 :      -0.4375    0.4375    0.3125
  band No.  band energies     occupation 
      1       0.5355      2.00000
      2       0.8371      2.00000
      3       1.2947      2.00000
      4       1.4824      2.00000
      5       2.0641      2.00000
      6       5.9269      0.00000
      7       9.1131      0.00000
      8      14.8921      0.00000
      9      16.0943      0.00000

 k-point    57 :      -0.3125    0.4375    0.3125
  band No.  band energies     occupation 
      1       0.5796      2.00000
      2       0.8238      2.00000
      3       1.1239      2.00000
      4       1.6700      2.00000
      5       2.1195      2.00000
      6       8.2163      0.00000
      7       9.2417      0.00000
      8      11.4692      0.00000
      9      14.3433      0.00000

 k-point    58 :      -0.4375   -0.4375    0.3125
  band No.  band energies     occupation 
      1       0.4488      2.00000
      2       0.8492      2.00000
      3       1.3589      2.00000
      4       1.5159      2.00000
      5       2.1084      2.00000
      6       7.2257      0.00000
      7       8.2708      0.00000
      8      13.4597      0.00000
      9      16.9013      0.00000

 k-point    59 :       0.4375    0.4375    0.4375
  band No.  band energies     occupation 
      1       0.1185      2.00000
      2       1.0517      2.00000
      3       1.0517      2.00000
      4       2.0990      2.00000
      5       2.0990      2.00000
      6       4.4833      2.00046
      7       8.2936      0.00000
      8      19.4654      0.00000
      9      20.0624      0.00000

 k-point    60 :      -0.4375    0.4375    0.4375
  band No.  band energies     occupation 
      1       0.2734      2.00000
      2       0.9610      2.00000
      3       1.1695      2.00000
      4       1.8029      2.00000
      5       2.0883      2.00000
      6       5.8480      0.00000
      7       7.6058      0.00000
      8      16.9935      0.00000
      9      19.0441      0.00000


--------------------------------------------------------------------------------------------------------


 soft charge-density along one line, spin component           1
         0         1         2         3         4         5         6         7         8         9
x     5.6977    0.0000    1.3966    0.0000   -0.2968    0.0000   -0.0873    0.0000    0.0252    0.0000
x     0.0059    0.0000    0.0001    0.0000    0.0000    0.0000    0.0000    0.0000
y     5.6977    0.0000    1.3966    0.0000   -0.2968    0.0000   -0.0873    0.0000    0.0252    0.0000
y     0.0059    0.0000    0.0001    0.0000    0.0000    0.0000    0.0000    0.0000
z     5.6977    0.0000    1.3966    0.0000   -0.2968    0.0000   -0.0873    0.0000    0.0252    0.0000
z     0.0059    0.0000    0.0001    0.0000    0.0000    0.0000    0.0000    0.0000
 total charge-density along one line
x    11.0000    0.0000    5.3164    0.0000    1.1550    0.0000    0.0672    0.0000    0.0020    0.0000
x     0.0108    0.0000   -0.0011    0.0000    0.0002    0.0000    0.0001    0.0000   -0.0002    0.0000
x     0.0001    0.0000   -0.0001    0.0000    0.0001    0.0000    0.0000    0.0000    0.0000    0.0000
x     0.0000    0.0000    0.0000    0.0000
y    11.0000    0.0000    5.3164    0.0000    1.1550    0.0000    0.0672    0.0000    0.0020    0.0000
y     0.0108    0.0000   -0.0011    0.0000    0.0002    0.0000    0.0001    0.0000   -0.0002    0.0000
y     0.0001    0.0000   -0.0001    0.0000    0.0001    0.0000    0.0000    0.0000    0.0000    0.0000
y     0.0000    0.0000    0.0000    0.0000
z    11.0000    0.0000    5.3164    0.0000    1.1550    0.0000    0.0672    0.0000    0.0020    0.0000
z     0.0108    0.0000   -0.0011    0.0000    0.0002    0.0000    0.0001    0.0000   -0.0002    0.0000
z     0.0001    0.0000   -0.0001    0.0000    0.0001    0.0000    0.0000    0.0000    0.0000    0.0000
z     0.0000    0.0000    0.0000    0.0000
 
 pseudopotential strength for first ion, spin component:           1
 -5.623   0.000   0.000  -0.003   0.000  -5.791   0.000   0.000
  0.000  -5.621   0.000   0.000  -0.003   0.000  -5.789   0.000
  0.000   0.000  -5.625   0.000   0.000   0.000   0.000  -5.793
 -0.003   0.000   0.000  -5.621   0.000  -0.003   0.000   0.000
  0.000  -0.003   0.000   0.000  -5.623   0.000  -0.003   0.000
 -5.791   0.000   0.000  -0.003   0.000  -5.926   0.000   0.000
  0.000  -5.789   0.000   0.000  -0.003   0.000  -5.924   0.000
  0.000   0.000  -5.793   0.000   0.000   0.000   0.000  -5.928
 -0.003   0.000   0.000  -5.789   0.000  -0.003   0.000   0.000
  0.000  -0.003   0.000   0.000  -5.791   0.000  -0.003   0.000
  0.000   0.000   0.000   0.000   0.000   0.000   0.000   0.000
  0.000   0.000   0.000   0.000   0.000   0.000   0.000   0.000
  0.000   0.000   0.000   0.000   0.000   0.000   0.000   0.000
  0.000   0.000   0.000   0.000   0.000   0.000   0.000   0.000
  0.000   0.000   0.000   0.000   0.000   0.000   0.000   0.000
  0.000   0.000   0.000   0.000   0.000   0.000   0.000   0.000
  0.000   0.000   0.000   0.000   0.000   0.000   0.000   0.000
  0.000   0.000   0.000   0.000   0.000   0.000   0.000   0.000
 total augmentation occupancy for first ion, spin component:           1
  2.802   0.000   0.000  -0.009   0.000  -0.703   0.000   0.000  -0.028   0.000   0.000   0.000   0.000   0.000   0.000   0.000
  0.000   2.809   0.000   0.000  -0.009   0.000  -0.684   0.000   0.000  -0.028   0.000   0.000   0.000   0.000   0.000   0.000
  0.000   0.000   2.796   0.000   0.000   0.000   0.000  -0.723   0.000   0.000   0.000   0.000   0.000   0.000   0.000   0.000
 -0.009   0.000   0.000   2.809   0.000  -0.028   0.000   0.000  -0.684   0.000   0.000   0.000   0.000   0.000   0.000   0.000
  0.000  -0.009   0.000   0.000   2.802   0.000  -0.028   0.000   0.000  -0.703   0.000   0.000   0.000   0.000   0.000   0.000
 -0.703   0.000   0.000  -0.028   0.000   0.565   0.000   0.000   0.057   0.000   0.000   0.000   0.000   0.000   0.000   0.000
  0.000  -0.684   0.000   0.000  -0.028   0.000   0.525   0.000   0.000   0.057   0.000   0.000   0.000   0.000   0.000   0.000
  0.000   0.000  -0.723   0.000   0.000   0.000   0.000   0.605   0.000   0.000   0.000   0.000   0.000   0.000   0.000   0.000
 -0.028   0.000   0.000  -0.684   0.000   0.057   0.000   0.000   0.525   0.000   0.000   0.000   0.000   0.000   0.000   0.000
  0.000  -0.028   0.000   0.000  -0.703   0.000   0.057   0.000   0.000   0.565   0.000   0.000   0.000   0.000   0.000   0.000
  0.000   0.000   0.000   0.000   0.000   0.000   0.000   0.000   0.000   0.000   1.597  -0.246   0.000   0.000   0.000   0.000
  0.000   0.000   0.000   0.000   0.000   0.000   0.000   0.000   0.000   0.000  -0.246   0.049   0.000   0.000   0.000   0.000
  0.000   0.000   0.000   0.000   0.000   0.000   0.000   0.000   0.000   0.000   0.000   0.000   0.091   0.000   0.000  -0.005
  0.000   0.000   0.000   0.000   0.000   0.000   0.000   0.000   0.000   0.000   0.000   0.000   0.000   0.091   0.000   0.000
  0.000   0.000   0.000   0.000   0.000   0.000   0.000   0.000   0.000   0.000   0.000   0.000   0.000   0.000   0.091   0.000
  0.000   0.000   0.000   0.000   0.000   0.000   0.000   0.000   0.000   0.000   0.000   0.000  -0.005   0.000   0.000   0.000
  0.000   0.000   0.000   0.000   0.000   0.000   0.000   0.000   0.000   0.000   0.000   0.000   0.000  -0.005   0.000   0.000
  0.000   0.000   0.000   0.000   0.000   0.000   0.000   0.000   0.000   0.000   0.000   0.000   0.000   0.000  -0.005   0.000


------------------------ aborting loop because EDIFF is reached ----------------------------------------


    CHARGE:  cpu time    0.07: real time    0.07
    FORLOC:  cpu time    0.00: real time    0.00
    FORNL :  cpu time    0.11: real time    0.11
    STRESS:  cpu time    0.37: real time    0.38
    FORCOR:  cpu time    0.04: real time    0.04
    FORHAR:  cpu time    0.01: real time    0.01
    MIXING:  cpu time    0.00: real time    0.00
    OFIELD:  cpu time    0.00: real time    0.00

  FORCE on cell =-STRESS in cart. coord.  units (eV):
  Direction    XX          YY          ZZ          XY          YZ          ZX
  --------------------------------------------------------------------------------------
  Alpha Z    37.36166    37.36166    37.36166
  Ewald    -295.93783  -295.93783  -295.93783     0.00000     0.00000     0.00000
  Hartree    79.36833    79.36833    79.36833     0.00000     0.00000     0.00000
  E(xc)     -57.72188   -57.72188   -57.72188     0.00000     0.00000     0.00000
  Local      19.65620    19.65610    19.65608     0.00008     0.00003     0.00006
  n-local   -13.57115   -12.59611   -11.89658    -0.50891    -0.15549     1.29075
  augment    92.19722    92.19732    92.19735    -0.00009    -0.00004    -0.00006
  Kinetic   136.46362   136.56087   135.31533    -0.14785     0.04306    -0.64685
  Fock        0.00000     0.00000     0.00000     0.00000     0.00000     0.00000
  -------------------------------------------------------------------------------------
  Total      -1.65097    -1.65097    -1.65097     0.00000     0.00000     0.00000
  in kB    -116.18831  -116.18831  -116.18831     0.00000     0.00000     0.00000
  external pressure =     -116.19 kB  Pullay stress =        0.00 kB


 VOLUME and BASIS-vectors are now :
 -----------------------------------------------------------------------------
  energy-cutoff  :      350.00
  volume of cell :       22.77
      direct lattice vectors                 reciprocal lattice vectors
     3.181273409  0.000000000  0.000000000     0.314339534 -0.181484014 -0.128328577
     1.590636704  2.755063588  0.000000000     0.000000000  0.362968029 -0.128328577
     1.590636704  0.918354529  2.597498861     0.000000000  0.000000000  0.384985732

  length of vectors
     3.181273409  3.181273409  3.181273409     0.384985732  0.384985732  0.384985732


 FORCES acting on ions
    electron-ion (+dipol)            ewald-force                    non-local-force                 convergence-correction
 -----------------------------------------------------------------------------------------------
   -.308E-13 0.195E-14 0.329E-14   0.227E-14 0.499E-15 -.444E-15   -.265E-22 0.000E+00 0.000E+00   -.341E-13 -.946E-14 -.198E-13
 -----------------------------------------------------------------------------------------------
   -.308E-13 0.195E-14 0.329E-14   0.227E-14 0.499E-15 -.444E-15   -.265E-22 0.000E+00 0.000E+00   -.341E-13 -.946E-14 -.198E-13
 
 
 POSITION                                       TOTAL-FORCE (eV/Angst)
 -----------------------------------------------------------------------------------
      0.00000      0.00000      0.00000         0.000000      0.000000      0.000000
 -----------------------------------------------------------------------------------
    total drift:                                0.000000      0.000000      0.000000


--------------------------------------------------------------------------------------------------------



  FREE ENERGIE OF THE ION-ELECTRON SYSTEM (eV)
  ---------------------------------------------------
  free  energy   TOTEN  =        -2.49988981 eV

  energy  without entropy=       -2.49960311  energy(sigma->0) =       -2.49979424
 


--------------------------------------------------------------------------------------------------------


    POTLOK:  cpu time    0.05: real time    0.05


--------------------------------------------------------------------------------------------------------


 stress matrix after NEB project (eV)
     -1.65097      0.00000      0.00000
      0.00000     -1.65097      0.00000
      0.00000      0.00000     -1.65097
  FORCES: max atom, RMS     0.000000    0.000000
  FORCE total and by dimension    0.000000    0.000000
  Stress total and by dimension    2.859568    1.650973


--------------------------------------------------------------------------------------------------------


  
 reached required accuracy - stopping structural energy minimisation
 writing wavefunctions
     LOOP+:  cpu time    8.64: real time    9.14
    4ORBIT:  cpu time    0.00: real time    0.00

 total amount of memory used by VASP on root node    38011. kBytes
========================================================================

   base      :      30000. kBytes
   nonl-proj :       3020. kBytes
   grid      :       1806. kBytes
   one-center:         15. kBytes
   wavefun   :       3170. kBytes
 
  
  
 General timing and accounting informations for this job:
 ========================================================
  
                  Total CPU time used (sec):        9.107
                            User time (sec):        8.984
                          System time (sec):        0.123
                         Elapsed time (sec):        9.742
  
                   Maximum memory used (kb):           0.
                   Average memory used (kb):           0.
  
                          Minor page faults:         6682
                          Major page faults:            0
                 Voluntary context switches:         1939
