<?xml version="1.0" encoding="ISO-8859-1"?>
<modeling>
 <generator>
  <i name="program" type="string">vasp </i>
  <i name="version" type="string">5.3.5  </i>
  <i name="subversion" type="string">31Mar14 (build Jan 09 2015 16:57:47) complex                          serial </i>
  <i name="platform" type="string">LinuxIFC </i>
  <i name="date" type="string">2015 03 24 </i>
  <i name="time" type="string">14:26:01 </i>
 </generator>
 <incar>
  <i type="string" name="PREC">normal</i>
  <i type="int" name="IBRION">     2</i>
  <i type="int" name="NSW">    30</i>
  <i type="int" name="ISIF">     2</i>
  <i name="ENCUT">    350.00000000</i>
 </incar>
 <kpoints>
  <generation param="Monkhorst-Pack">
   <v type="int" name="divisions">       8        8        8 </v>
   <v name="usershift">      0.00000000       0.00000000       0.00000000 </v>
   <v name="genvec1">      0.12500000       0.00000000       0.00000000 </v>
   <v name="genvec2">      0.00000000       0.12500000       0.00000000 </v>
   <v name="genvec3">      0.00000000       0.00000000       0.12500000 </v>
   <v name="shift">      0.50000000       0.50000000       0.50000000 </v>
  </generation>
  <varray name="kpointlist" >
   <v>       0.06250000       0.06250000       0.06250000 </v>
   <v>       0.18750000       0.06250000       0.06250000 </v>
   <v>       0.31250000       0.06250000       0.06250000 </v>
   <v>       0.43750000       0.06250000       0.06250000 </v>
   <v>      -0.43750000       0.06250000       0.06250000 </v>
   <v>      -0.31250000       0.06250000       0.06250000 </v>
   <v>      -0.18750000       0.06250000       0.06250000 </v>
   <v>      -0.06250000       0.06250000       0.06250000 </v>
   <v>       0.18750000       0.18750000       0.06250000 </v>
   <v>       0.31250000       0.18750000       0.06250000 </v>
   <v>       0.43750000       0.18750000       0.06250000 </v>
   <v>      -0.43750000       0.18750000       0.06250000 </v>
   <v>      -0.31250000       0.18750000       0.06250000 </v>
   <v>      -0.18750000       0.18750000       0.06250000 </v>
   <v>      -0.06250000       0.18750000       0.06250000 </v>
   <v>       0.31250000       0.31250000       0.06250000 </v>
   <v>       0.43750000       0.31250000       0.06250000 </v>
   <v>      -0.43750000       0.31250000       0.06250000 </v>
   <v>      -0.31250000       0.31250000       0.06250000 </v>
   <v>      -0.18750000       0.31250000       0.06250000 </v>
   <v>      -0.06250000       0.31250000       0.06250000 </v>
   <v>       0.43750000       0.43750000       0.06250000 </v>
   <v>      -0.43750000       0.43750000       0.06250000 </v>
   <v>      -0.31250000       0.43750000       0.06250000 </v>
   <v>      -0.18750000       0.43750000       0.06250000 </v>
   <v>      -0.06250000       0.43750000       0.06250000 </v>
   <v>      -0.43750000      -0.43750000       0.06250000 </v>
   <v>      -0.31250000      -0.43750000       0.06250000 </v>
   <v>      -0.18750000      -0.43750000       0.06250000 </v>
   <v>      -0.31250000      -0.31250000       0.06250000 </v>
   <v>      -0.18750000      -0.31250000       0.06250000 </v>
   <v>      -0.18750000      -0.18750000       0.06250000 </v>
   <v>       0.18750000       0.18750000       0.18750000 </v>
   <v>       0.31250000       0.18750000       0.18750000 </v>
   <v>       0.43750000       0.18750000       0.18750000 </v>
   <v>      -0.43750000       0.18750000       0.18750000 </v>
   <v>      -0.31250000       0.18750000       0.18750000 </v>
   <v>      -0.18750000       0.18750000       0.18750000 </v>
   <v>       0.31250000       0.31250000       0.18750000 </v>
   <v>       0.43750000       0.31250000       0.18750000 </v>
   <v>      -0.43750000       0.31250000       0.18750000 </v>
   <v>      -0.31250000       0.31250000       0.18750000 </v>
   <v>      -0.18750000       0.31250000       0.18750000 </v>
   <v>       0.43750000       0.43750000       0.18750000 </v>
   <v>      -0.43750000       0.43750000       0.18750000 </v>
   <v>      -0.31250000       0.43750000       0.18750000 </v>
   <v>      -0.18750000       0.43750000       0.18750000 </v>
   <v>      -0.43750000      -0.43750000       0.18750000 </v>
   <v>      -0.31250000      -0.43750000       0.18750000 </v>
   <v>      -0.31250000      -0.31250000       0.18750000 </v>
   <v>       0.31250000       0.31250000       0.31250000 </v>
   <v>       0.43750000       0.31250000       0.31250000 </v>
   <v>      -0.43750000       0.31250000       0.31250000 </v>
   <v>      -0.31250000       0.31250000       0.31250000 </v>
   <v>       0.43750000       0.43750000       0.31250000 </v>
   <v>      -0.43750000       0.43750000       0.31250000 </v>
   <v>      -0.31250000       0.43750000       0.31250000 </v>
   <v>      -0.43750000      -0.43750000       0.31250000 </v>
   <v>       0.43750000       0.43750000       0.43750000 </v>
   <v>      -0.43750000       0.43750000       0.43750000 </v>
  </varray>
  <varray name="weights" >
   <v>       0.00390625 </v>
   <v>       0.01171875 </v>
   <v>       0.01171875 </v>
   <v>       0.01171875 </v>
   <v>       0.01171875 </v>
   <v>       0.01171875 </v>
   <v>       0.01171875 </v>
   <v>       0.01171875 </v>
   <v>       0.01171875 </v>
   <v>       0.02343750 </v>
   <v>       0.02343750 </v>
   <v>       0.02343750 </v>
   <v>       0.02343750 </v>
   <v>       0.02343750 </v>
   <v>       0.02343750 </v>
   <v>       0.01171875 </v>
   <v>       0.02343750 </v>
   <v>       0.02343750 </v>
   <v>       0.02343750 </v>
   <v>       0.02343750 </v>
   <v>       0.02343750 </v>
   <v>       0.01171875 </v>
   <v>       0.02343750 </v>
   <v>       0.02343750 </v>
   <v>       0.02343750 </v>
   <v>       0.02343750 </v>
   <v>       0.01171875 </v>
   <v>       0.02343750 </v>
   <v>       0.02343750 </v>
   <v>       0.01171875 </v>
   <v>       0.02343750 </v>
   <v>       0.01171875 </v>
   <v>       0.00390625 </v>
   <v>       0.01171875 </v>
   <v>       0.01171875 </v>
   <v>       0.01171875 </v>
   <v>       0.01171875 </v>
   <v>       0.01171875 </v>
   <v>       0.01171875 </v>
   <v>       0.02343750 </v>
   <v>       0.02343750 </v>
   <v>       0.02343750 </v>
   <v>       0.02343750 </v>
   <v>       0.01171875 </v>
   <v>       0.02343750 </v>
   <v>       0.02343750 </v>
   <v>       0.02343750 </v>
   <v>       0.01171875 </v>
   <v>       0.02343750 </v>
   <v>       0.01171875 </v>
   <v>       0.00390625 </v>
   <v>       0.01171875 </v>
   <v>       0.01171875 </v>
   <v>       0.01171875 </v>
   <v>       0.01171875 </v>
   <v>       0.02343750 </v>
   <v>       0.02343750 </v>
   <v>       0.01171875 </v>
   <v>       0.00390625 </v>
   <v>       0.01171875 </v>
  </varray>
 </kpoints>
 <parameters>
  <separator name="general" >
   <i type="string" name="SYSTEM">unknown system</i>
   <i type="logical" name="LCOMPAT"> F  </i>
  </separator>
  <separator name="electronic" >
   <i type="string" name="PREC">normal</i>
   <i name="ENMAX">    350.00000000</i>
   <i name="ENAUG">    412.49600000</i>
   <i name="EDIFF">      0.00010000</i>
   <i type="int" name="IALGO">    38</i>
   <i type="int" name="IWAVPR">    11</i>
   <i type="int" name="NBANDS">     9</i>
   <i name="NELECT">     11.00000000</i>
   <i type="int" name="TURBO">     0</i>
   <i type="int" name="IRESTART">     0</i>
   <i type="int" name="NREBOOT">     0</i>
   <i type="int" name="NMIN">     0</i>
   <i name="EREF">      0.00000000</i>
   <separator name="electronic smearing" >
    <i type="int" name="ISMEAR">     1</i>
    <i name="SIGMA">      0.20000000</i>
    <i name="KSPACING">      0.50000000</i>
    <i type="logical" name="KGAMMA"> T  </i>
   </separator>
   <separator name="electronic projectors" >
    <i type="logical" name="LREAL"> F  </i>
    <v name="ROPT">      0.00000000</v>
    <i type="int" name="LMAXPAW">  -100</i>
    <i type="int" name="LMAXMIX">     2</i>
    <i type="logical" name="NLSPLINE"> F  </i>
   </separator>
   <separator name="electronic startup" >
    <i type="int" name="ISTART">     0</i>
    <i type="int" name="ICHARG">     2</i>
    <i type="int" name="INIWAV">     1</i>
   </separator>
   <separator name="electronic spin" >
    <i type="int" name="ISPIN">     1</i>
    <i type="logical" name="LNONCOLLINEAR"> F  </i>
    <v name="MAGMOM">      1.00000000</v>
    <i name="NUPDOWN">     -1.00000000</i>
    <i type="logical" name="LSORBIT"> F  </i>
    <v name="SAXIS">      0.00000000      0.00000000      1.00000000</v>
    <i type="logical" name="LSPIRAL"> F  </i>
    <v name="QSPIRAL">      0.00000000      0.00000000      0.00000000</v>
    <i type="logical" name="LZEROZ"> F  </i>
   </separator>
   <separator name="electronic exchange-correlation" >
    <i type="logical" name="LASPH"> F  </i>
    <i type="logical" name="LMETAGGA"> F  </i>
   </separator>
   <separator name="electronic convergence" >
    <i type="int" name="NELM">    60</i>
    <i type="int" name="NELMDL">    -5</i>
    <i type="int" name="NELMIN">     2</i>
    <i name="ENINI">    350.00000000</i>
    <separator name="electronic convergence detail" >
     <i type="logical" name="LDIAG"> T  </i>
     <i type="logical" name="LSUBROT"> F  </i>
     <i name="WEIMIN">      0.00100000</i>
     <i name="EBREAK">      0.00000278</i>
     <i name="DEPER">      0.30000000</i>
     <i type="int" name="NRMM">     4</i>
     <i name="TIME">      0.40000000</i>
    </separator>
   </separator>
   <separator name="electronic mixer" >
    <i name="AMIX">      0.40000000</i>
    <i name="BMIX">      1.00000000</i>
    <i name="AMIN">      0.10000000</i>
    <i name="AMIX_MAG">      1.60000000</i>
    <i name="BMIX_MAG">      1.00000000</i>
    <separator name="electronic mixer details" >
     <i type="int" name="IMIX">     4</i>
     <i type="int" name="MAXMIX">   -45</i>
     <i name="WC">    100.00000000</i>
     <i type="int" name="INIMIX">     1</i>
     <i type="int" name="MIXPRE">     1</i>
     <i type="int" name="MREMOVE">     5</i>
    </separator>
   </separator>
   <separator name="electronic dipolcorrection" >
    <i type="logical" name="LDIPOL"> F  </i>
    <i type="logical" name="LMONO"> F  </i>
    <i type="int" name="IDIPOL">     0</i>
    <i name="EPSILON">      1.00000000</i>
    <v name="DIPOL">   -100.00000000   -100.00000000   -100.00000000</v>
    <i name="EFIELD">      0.00000000</i>
   </separator>
  </separator>
  <separator name="grids" >
   <i type="int" name="NGX">    16</i>
   <i type="int" name="NGY">    16</i>
   <i type="int" name="NGZ">    16</i>
   <i type="int" name="NGXF">    32</i>
   <i type="int" name="NGYF">    32</i>
   <i type="int" name="NGZF">    32</i>
   <i type="logical" name="ADDGRID"> F  </i>
  </separator>
  <separator name="ionic" >
   <i type="int" name="NSW">    30</i>
   <i type="int" name="IBRION">     2</i>
   <i type="int" name="ISIF">     2</i>
   <i name="PSTRESS">      0.00000000</i>
   <i name="EDIFFG">      0.00100000</i>
   <i type="int" name="NFREE">     1</i>
   <i name="POTIM">      0.50000000</i>
   <i name="SMASS">     -3.00000000</i>
   <i name="SCALEE">      1.00000000</i>
  </separator>
  <separator name="ionic md" >
   <i name="TEBEG">      0.00010000</i>
   <i name="TEEND">      0.00010000</i>
   <i type="int" name="NBLOCK">     1</i>
   <i type="int" name="KBLOCK">    30</i>
   <i type="int" name="NPACO">   256</i>
   <i name="APACO">     16.00000000</i>
  </separator>
  <separator name="symmetry" >
   <i type="int" name="ISYM">     2</i>
   <i name="SYMPREC">      0.00001000</i>
  </separator>
  <separator name="dos" >
   <i type="logical" name="LORBIT"> F  </i>
   <v name="RWIGS">     -1.00000000</v>
   <i type="int" name="NEDOS">   301</i>
   <i name="EMIN">     10.00000000</i>
   <i name="EMAX">    -10.00000000</i>
   <i name="EFERMI">      0.00000000</i>
  </separator>
  <separator name="writing" >
   <i type="int" name="NWRITE">     2</i>
   <i type="logical" name="LWAVE"> T  </i>
   <i type="logical" name="LCHARG"> T  </i>
   <i type="logical" name="LPARD"> F  </i>
   <i type="logical" name="LVTOT"> F  </i>
   <i type="logical" name="LVHAR"> F  </i>
   <i type="logical" name="LELF"> F  </i>
   <i type="logical" name="LOPTICS"> F  </i>
   <v name="STM">      0.00000000      0.00000000      0.00000000      0.00000000      0.00000000      0.00000000      0.00000000</v>
  </separator>
  <separator name="performance" >
   <i type="int" name="NPAR">     1</i>
   <i type="int" name="NSIM">     4</i>
   <i type="int" name="NBLK">    -1</i>
   <i type="logical" name="LPLANE"> T  </i>
   <i type="logical" name="LSCALAPACK"> F  </i>
   <i type="logical" name="LSCAAWARE"> F  </i>
   <i type="logical" name="LSCALU"> F  </i>
   <i type="logical" name="LASYNC"> F  </i>
   <i type="logical" name="LORBITALREAL"> F  </i>
  </separator>
  <separator name="miscellaneous" >
   <i type="int" name="IDIOT">     3</i>
   <i type="logical" name="LMUSIC"> F  </i>
   <v name="POMASS">    107.86800000</v>
   <v name="DARWINR">      0.00000000</v>
   <v name="DARWINV">      1.00000000</v>
   <i type="logical" name="LCORR"> T  </i>
  </separator>
  <i type="logical" name="GGA_COMPAT"> T  </i>
  <i type="logical" name="LBERRY"> F  </i>
  <i type="int" name="ICORELEVEL">     0</i>
  <i type="logical" name="LDAU"> F  </i>
  <i type="int" name="I_CONSTRAINED_M">     0</i>
  <separator name="electronic exchange-correlation" >
   <i type="string" name="GGA">--</i>
   <i type="int" name="VOSKOWN">     0</i>
   <i type="logical" name="LHFCALC"> F  </i>
   <i type="string" name="PRECFOCK"></i>
   <i type="logical" name="LSYMGRAD"> F  </i>
   <i type="logical" name="LHFONE"> F  </i>
   <i type="logical" name="LRHFCALC"> F  </i>
   <i type="logical" name="LTHOMAS"> F  </i>
   <i type="logical" name="LMODELHF"> F  </i>
   <i name="ENCUT4O">     -1.00000000</i>
   <i type="int" name="EXXOEP">     0</i>
   <i type="int" name="FOURORBIT">     0</i>
   <i name="AEXX">      0.00000000</i>
   <i name="HFALPHA">      0.00000000</i>
   <i name="MCALPHA">      0.00000000</i>
   <i name="ALDAX">      1.00000000</i>
   <i name="AGGAX">      1.00000000</i>
   <i name="ALDAC">      1.00000000</i>
   <i name="AGGAC">      1.00000000</i>
   <i type="int" name="NKREDX">     1</i>
   <i type="int" name="NKREDY">     1</i>
   <i type="int" name="NKREDZ">     1</i>
   <i type="logical" name="SHIFTRED"> F  </i>
   <i type="logical" name="ODDONLY"> F  </i>
   <i type="logical" name="EVENONLY"> F  </i>
   <i type="int" name="LMAXFOCK">     0</i>
   <i type="int" name="NMAXFOCKAE">     0</i>
   <i type="logical" name="LFOCKAEDFT"> F  </i>
   <i name="HFSCREEN">      0.00000000</i>
   <i name="HFSCREENC">      0.00000000</i>
   <i type="int" name="NBANDSGWLOW">     0</i>
  </separator>
  <separator name="vdW DFT" >
   <i type="logical" name="LUSE_VDW"> F  </i>
   <i name="Zab_VDW">     -0.84910000</i>
   <i name="PARAM1">      0.12340000</i>
   <i name="PARAM2">      1.00000000</i>
   <i name="PARAM3">      0.00000000</i>
  </separator>
  <separator name="model GW" >
   <i type="int" name="MODEL_GW">     0</i>
   <i name="MODEL_EPS0">     13.65963952</i>
   <i name="MODEL_ALPHA">      1.00000000</i>
  </separator>
  <separator name="linear response parameters" >
   <i type="logical" name="LEPSILON"> F  </i>
   <i type="logical" name="LRPA"> F  </i>
   <i type="logical" name="LNABLA"> F  </i>
   <i type="logical" name="LVEL"> F  </i>
   <i type="int" name="KINTER">     0</i>
   <i name="CSHIFT">      0.10000000</i>
   <i name="OMEGAMAX">     -1.00000000</i>
   <i name="DEG_THRESHOLD">      0.00200000</i>
  </separator>
  <separator name="orbital magnetization" >
   <i type="logical" name="NUCIND"> F  </i>
   <v name="MAGPOS">      0.00000000      0.00000000      0.00000000</v>
   <i type="logical" name="LNICSALL"> T  </i>
   <i type="logical" name="ORBITALMAG"> F  </i>
   <i type="logical" name="LMAGBLOCH"> F  </i>
   <i type="logical" name="LCHIMAG"> F  </i>
   <i type="logical" name="LGAUGE"> T  </i>
   <i type="int" name="MAGATOM">     0</i>
   <v name="MAGDIPOL">      0.00000000      0.00000000      0.00000000</v>
   <v name="AVECCONST">      0.00000000      0.00000000      0.00000000</v>
  </separator>
  <separator name="response functions" >
   <i type="logical" name="LADDER"> F  </i>
   <i type="logical" name="LFXC"> F  </i>
   <i type="logical" name="LHARTREE"> T  </i>
   <i type="int" name="IBSE">     0</i>
   <i type="logical" name="LTCTE"> F  </i>
   <i type="logical" name="LTETE"> F  </i>
   <i type="logical" name="LTRIPLET"> F  </i>
   <i type="logical" name="LFXCEPS"> F  </i>
   <i type="logical" name="LFXHEG"> F  </i>
   <i type="logical" name="L2ORDER"> F  </i>
   <i type="logical" name="LUSEW"> F  </i>
   <i name="ENCUTGW">     -2.00000000</i>
   <i name="ENCUTGWSOFT">     -2.00000000</i>
   <i name="ENCUTLF">     -1.00000000</i>
   <i type="int" name="LMAXMP2">    -1</i>
   <i name="SCISSOR">      0.00000000</i>
   <i type="int" name="NOMEGA">     0</i>
   <i type="int" name="NOMEGAR">     0</i>
   <i type="int" name="NBANDSGW">    -1</i>
   <i type="int" name="NBANDSO">    -1</i>
   <i type="int" name="NBANDSV">    -1</i>
   <i type="int" name="NELM">     1</i>
   <i type="int" name="DIM">     3</i>
   <i type="int" name="ANTIRES">     0</i>
   <i name="OMEGAMAX">    -30.00000000</i>
   <i name="OMEGAMIN">    -30.00000000</i>
   <i name="OMEGATL">   -200.00000000</i>
   <i type="int" name="OMEGAGRID">     0</i>
   <i name="CSHIFT">     -0.10000000</i>
   <i type="logical" name="SELFENERGY"> F  </i>
   <i type="logical" name="LSPECTRAL"> F  </i>
   <i type="logical" name="ODDONLYGW"> F  </i>
   <i type="logical" name="EVENONLYGW"> F  </i>
   <i type="int" name="NKREDLFX">     1</i>
   <i type="int" name="NKREDLFY">     1</i>
   <i type="int" name="NKREDLFZ">     1</i>
   <i type="int" name="MAXMEM">  1800</i>
   <i type="int" name="TELESCOPE">     0</i>
   <i type="int" name="TAUPAR">     1</i>
  </separator>
  <separator name="External order field" >
   <i name="OFIELD_KAPPA">      0.00000000</i>
   <v name="OFIELD_K">      0.00000000      0.00000000      0.00000000</v>
   <i name="OFIELD_Q6_NEAR">      0.00000000</i>
   <i name="OFIELD_Q6_FAR">      0.00000000</i>
   <i name="OFIELD_A">      0.00000000</i>
  </separator>
 </parameters>
 <atominfo>
  <atoms>       1 </atoms>
  <types>       1 </types>
  <array name="atoms" >
   <dimension dim="1">ion</dimension>
   <field type="string">element</field>
   <field type="int">atomtype</field>
   <set>
    <rc><c>Ag</c><c>   1</c></rc>
   </set>
  </array>
  <array name="atomtypes" >
   <dimension dim="1">type</dimension>
   <field type="int">atomspertype</field>
   <field type="string">element</field>
   <field>mass</field>
   <field>valence</field>
   <field type="string">pseudopotential</field>
   <set>
    <rc><c>   1</c><c>Ag</c><c>    107.86800000</c><c>     11.00000000</c><c>  PAW_PBE Ag 02Apr2005                  </c></rc>
   </set>
  </array>
 </atominfo>
 <structure name="initialpos" >
  <crystal>
   <varray name="basis" >
    <v>       3.18127341       0.00000000       0.00000000 </v>
    <v>       1.59063670       2.75506359       0.00000000 </v>
    <v>       1.59063670       0.91835453       2.59749886 </v>
   </varray>
   <i name="volume">     22.76606587 </i>
   <varray name="rec_basis" >
    <v>       0.31433953      -0.18148401      -0.12832858 </v>
    <v>       0.00000000       0.36296803      -0.12832858 </v>
    <v>       0.00000000       0.00000000       0.38498573 </v>
   </varray>
  </crystal>
  <varray name="positions" >
   <v>       0.00000000       0.00000000       0.00000000 </v>
  </varray>
 </structure>
 <calculation>
  <scstep>
   <time name="dav">    0.85    0.85</time>
   <time name="total">    0.91    0.94</time>
   <energy>
    <i name="alphaZ">     37.36166247 </i>
    <i name="ewald">   -887.81347007 </i>
    <i name="hartreedc">   -248.22988992 </i>
    <i name="XCdc">    -11.08070099 </i>
    <i name="pawpsdc">   1003.46214933 </i>
    <i name="pawaedc">   -957.34927423 </i>
    <i name="eentropy">     -0.00186210 </i>
    <i name="bandstr">     54.26153963 </i>
    <i name="atom">   1037.24027811 </i>
    <i name="e_fr_energy">     27.85043222 </i>
    <i name="e_wo_entrp">     27.85229432 </i>
    <i name="e_0_energy">     27.85105292 </i>
   </energy>
  </scstep>
  <scstep>
   <time name="dav">    0.77    0.77</time>
   <time name="total">    0.77    0.81</time>
   <energy>
    <i name="e_fr_energy">     -2.40140030 </i>
    <i name="e_wo_entrp">     -2.40128001 </i>
    <i name="e_0_energy">     -2.40136020 </i>
   </energy>
  </scstep>
  <scstep>
   <time name="dav">    0.86    0.86</time>
   <time name="total">    0.87    0.93</time>
   <energy>
    <i name="e_fr_energy">     -2.65032569 </i>
    <i name="e_wo_entrp">     -2.65006822 </i>
    <i name="e_0_energy">     -2.65023987 </i>
   </energy>
  </scstep>
  <scstep>
   <time name="dav">    1.03    1.03</time>
   <time name="total">    1.04    1.10</time>
   <energy>
    <i name="e_fr_energy">     -2.65090527 </i>
    <i name="e_wo_entrp">     -2.65064771 </i>
    <i name="e_0_energy">     -2.65081941 </i>
   </energy>
  </scstep>
  <scstep>
   <time name="dav">    0.76    0.76</time>
   <time name="total">    0.84    0.85</time>
   <energy>
    <i name="e_fr_energy">     -2.65091063 </i>
    <i name="e_wo_entrp">     -2.65065308 </i>
    <i name="e_0_energy">     -2.65082478 </i>
   </energy>
  </scstep>
  <scstep>
   <time name="dav">    0.78    0.78</time>
   <time name="total">    0.91    0.99</time>
   <energy>
    <i name="e_fr_energy">     -2.50194150 </i>
    <i name="e_wo_entrp">     -2.50167378 </i>
    <i name="e_0_energy">     -2.50185226 </i>
   </energy>
  </scstep>
  <scstep>
   <time name="dav">    0.87    0.87</time>
   <time name="total">    1.00    1.11</time>
   <energy>
    <i name="e_fr_energy">     -2.50051514 </i>
    <i name="e_wo_entrp">     -2.50023258 </i>
    <i name="e_0_energy">     -2.50042095 </i>
   </energy>
  </scstep>
  <scstep>
   <time name="dav">    0.86    0.87</time>
   <time name="total">    0.99    1.02</time>
   <energy>
    <i name="e_fr_energy">     -2.49986519 </i>
    <i name="e_wo_entrp">     -2.49957540 </i>
    <i name="e_0_energy">     -2.49976859 </i>
   </energy>
  </scstep>
  <scstep>
   <time name="dav">    0.51    0.52</time>
   <time name="total">    0.57    0.59</time>
   <energy>
    <i name="alphaZ">     37.36166247 </i>
    <i name="ewald">   -887.81347007 </i>
    <i name="hartreedc">   -238.11852260 </i>
    <i name="XCdc">    -11.46701331 </i>
    <i name="pawpsdc">   1041.63237318 </i>
    <i name="pawaedc">   -996.77808094 </i>
    <i name="eentropy">     -0.00028669 </i>
    <i name="bandstr">     15.44317006 </i>
    <i name="atom">   1037.24027811 </i>
    <i name="e_fr_energy">     -2.49988981 </i>
    <i name="e_wo_entrp">     -2.49960311 </i>
    <i name="e_0_energy">     -2.49979424 </i>
   </energy>
  </scstep>
  <structure>
   <crystal>
    <varray name="basis" >
     <v>       3.18127341       0.00000000       0.00000000 </v>
     <v>       1.59063670       2.75506359       0.00000000 </v>
     <v>       1.59063670       0.91835453       2.59749886 </v>
    </varray>
    <i name="volume">     22.76606587 </i>
    <varray name="rec_basis" >
     <v>       0.31433953      -0.18148401      -0.12832858 </v>
     <v>       0.00000000       0.36296803      -0.12832858 </v>
     <v>       0.00000000       0.00000000       0.38498573 </v>
    </varray>
   </crystal>
   <varray name="positions" >
    <v>       0.00000000       0.00000000       0.00000000 </v>
   </varray>
  </structure>
  <varray name="forces" >
   <v>       0.00000000       0.00000000       0.00000000 </v>
  </varray>
  <varray name="stress" >
   <v>    -116.18831201       0.00000000       0.00000000 </v>
   <v>       0.00000000    -116.18831201       0.00000000 </v>
   <v>       0.00000000       0.00000000    -116.18831201 </v>
  </varray>
  <energy>
   <i name="e_fr_energy">     -2.49988981 </i>
   <i name="e_wo_entrp">     -2.49979424 </i>
   <i name="e_0_energy">     -0.00028669 </i>
  </energy>
  <time name="totalsc">    8.64    9.14</time>
  <eigenvalues>
   <array>
    <dimension dim="1">band</dimension>
    <dimension dim="2">kpoint</dimension>
    <dimension dim="3">spin</dimension>
    <field>eigene</field>
    <field>occ</field>
    <set>
     <set comment="spin 1">
      <set comment="kpoint 1">
       <r>   -0.7825    1.0000 </r>
       <r>    1.0302    1.0000 </r>
       <r>    1.0658    1.0000 </r>
       <r>    1.0658    1.0000 </r>
       <r>    1.6504    1.0000 </r>
       <r>    1.6504    1.0000 </r>
       <r>   20.0020    0.0000 </r>
       <r>   21.1127    0.0000 </r>
       <r>   21.9773    0.0000 </r>
      </set>
      <set comment="kpoint 2">
       <r>   -0.3007    1.0000 </r>
       <r>    0.9622    1.0000 </r>
       <r>    1.1544    1.0000 </r>
       <r>    1.1771    1.0000 </r>
       <r>    1.5781    1.0000 </r>
       <r>    1.7090    1.0000 </r>
       <r>   17.8639    0.0000 </r>
       <r>   19.4862    0.0000 </r>
       <r>   21.5229    0.0000 </r>
      </set>
      <set comment="kpoint 3">
       <r>    0.2587    1.0000 </r>
       <r>    1.1345    1.0000 </r>
       <r>    1.1900    1.0000 </r>
       <r>    1.4497    1.0000 </r>
       <r>    1.6865    1.0000 </r>
       <r>    2.0780    1.0000 </r>
       <r>   13.4938    0.0000 </r>
       <r>   18.8627    0.0000 </r>
       <r>   20.9670    0.0000 </r>
      </set>
      <set comment="kpoint 4">
       <r>    0.1941    1.0000 </r>
       <r>    1.0582    1.0000 </r>
       <r>    1.1003    1.0000 </r>
       <r>    1.9654    1.0000 </r>
       <r>    1.9822    1.0000 </r>
       <r>    3.8334    1.0000 </r>
       <r>    9.5040    0.0000 </r>
       <r>   18.6029    0.0000 </r>
       <r>   19.9206    0.0000 </r>
      </set>
      <set comment="kpoint 5">
       <r>    0.1481    1.0000 </r>
       <r>    1.0164    1.0000 </r>
       <r>    1.0760    1.0000 </r>
       <r>    2.0172    1.0000 </r>
       <r>    2.1363    1.0000 </r>
       <r>    5.3720   -0.0226 </r>
       <r>    7.4679    0.0000 </r>
       <r>   18.9732    0.0000 </r>
       <r>   19.5223    0.0000 </r>
      </set>
      <set comment="kpoint 6">
       <r>    0.2262    1.0000 </r>
       <r>    1.0788    1.0000 </r>
       <r>    1.1429    1.0000 </r>
       <r>    1.7454    1.0000 </r>
       <r>    2.0261    1.0000 </r>
       <r>    3.0654    1.0000 </r>
       <r>   10.7605    0.0000 </r>
       <r>   19.4305    0.0000 </r>
       <r>   19.5824    0.0000 </r>
      </set>
      <set comment="kpoint 7">
       <r>    0.1659    1.0000 </r>
       <r>    1.0747    1.0000 </r>
       <r>    1.2098    1.0000 </r>
       <r>    1.2263    1.0000 </r>
       <r>    1.7243    1.0000 </r>
       <r>    1.7898    1.0000 </r>
       <r>   14.9309    0.0000 </r>
       <r>   19.9967    0.0000 </r>
       <r>   20.1123    0.0000 </r>
      </set>
      <set comment="kpoint 8">
       <r>   -0.5311    1.0000 </r>
       <r>    0.9684    1.0000 </r>
       <r>    1.1323    1.0000 </r>
       <r>    1.1325    1.0000 </r>
       <r>    1.5882    1.0000 </r>
       <r>    1.6880    1.0000 </r>
       <r>   19.2365    0.0000 </r>
       <r>   20.4376    0.0000 </r>
       <r>   20.9047    0.0000 </r>
      </set>
      <set comment="kpoint 9">
       <r>   -0.0723    1.0000 </r>
       <r>    0.8441    1.0000 </r>
       <r>    1.2534    1.0000 </r>
       <r>    1.2617    1.0000 </r>
       <r>    1.5376    1.0000 </r>
       <r>    1.7581    1.0000 </r>
       <r>   18.0638    0.0000 </r>
       <r>   19.4531    0.0000 </r>
       <r>   19.9769    0.0000 </r>
      </set>
      <set comment="kpoint 10">
       <r>    0.4875    1.0000 </r>
       <r>    0.7804    1.0000 </r>
       <r>    1.1927    1.0000 </r>
       <r>    1.4205    1.0000 </r>
       <r>    1.7579    1.0000 </r>
       <r>    2.1643    1.0000 </r>
       <r>   15.3154    0.0000 </r>
       <r>   17.0962    0.0000 </r>
       <r>   19.9431    0.0000 </r>
      </set>
      <set comment="kpoint 11">
       <r>    0.4287    1.0000 </r>
       <r>    0.9940    1.0000 </r>
       <r>    1.2389    1.0000 </r>
       <r>    1.4026    1.0000 </r>
       <r>    2.0397    1.0000 </r>
       <r>    3.7874    1.0000 </r>
       <r>   11.1733    0.0000 </r>
       <r>   16.7163    0.0000 </r>
       <r>   17.8882    0.0000 </r>
      </set>
      <set comment="kpoint 12">
       <r>    0.3716    1.0000 </r>
       <r>    0.9024    1.0000 </r>
       <r>    1.2745    1.0000 </r>
       <r>    1.5960    1.0000 </r>
       <r>    2.1150    1.0000 </r>
       <r>    6.2567    0.0000 </r>
       <r>    7.7451    0.0000 </r>
       <r>   16.3589    0.0000 </r>
       <r>   17.1955    0.0000 </r>
      </set>
      <set comment="kpoint 13">
       <r>    0.4420    1.0000 </r>
       <r>    0.9487    1.0000 </r>
       <r>    1.2769    1.0000 </r>
       <r>    1.5155    1.0000 </r>
       <r>    1.9566    1.0000 </r>
       <r>    4.5920    1.0028 </r>
       <r>    9.9418    0.0000 </r>
       <r>   15.6836    0.0000 </r>
       <r>   18.4094    0.0000 </r>
      </set>
      <set comment="kpoint 14">
       <r>    0.5880    1.0000 </r>
       <r>    0.9223    1.0000 </r>
       <r>    1.1494    1.0000 </r>
       <r>    1.4120    1.0000 </r>
       <r>    1.6381    1.0000 </r>
       <r>    2.6926    1.0000 </r>
       <r>   13.9132    0.0000 </r>
       <r>   15.7963    0.0000 </r>
       <r>   20.2416    0.0000 </r>
      </set>
      <set comment="kpoint 15">
       <r>    0.1049    1.0000 </r>
       <r>    0.8848    1.0000 </r>
       <r>    1.2288    1.0000 </r>
       <r>    1.2587    1.0000 </r>
       <r>    1.5697    1.0000 </r>
       <r>    1.8396    1.0000 </r>
       <r>   16.5347    0.0000 </r>
       <r>   18.2893    0.0000 </r>
       <r>   21.2674    0.0000 </r>
      </set>
      <set comment="kpoint 16">
       <r>    0.4780    1.0000 </r>
       <r>    0.5311    1.0000 </r>
       <r>    1.5881    1.0000 </r>
       <r>    1.6510    1.0000 </r>
       <r>    1.9555    1.0000 </r>
       <r>    2.5255    1.0000 </r>
       <r>   15.6856    0.0000 </r>
       <r>   16.6716    0.0000 </r>
       <r>   17.1841    0.0000 </r>
      </set>
      <set comment="kpoint 17">
       <r>    0.4070    1.0000 </r>
       <r>    0.5135    1.0000 </r>
       <r>    1.5328    1.0000 </r>
       <r>    1.8338    1.0000 </r>
       <r>    2.0637    1.0000 </r>
       <r>    4.1659    1.0000 </r>
       <r>   13.2757    0.0000 </r>
       <r>   14.7198    0.0000 </r>
       <r>   15.2190    0.0000 </r>
      </set>
      <set comment="kpoint 18">
       <r>    0.4229    1.0000 </r>
       <r>    0.7142    1.0000 </r>
       <r>    1.3762    1.0000 </r>
       <r>    1.6844    1.0000 </r>
       <r>    2.1458    1.0000 </r>
       <r>    6.6653    0.0000 </r>
       <r>    9.7010    0.0000 </r>
       <r>   13.0356    0.0000 </r>
       <r>   15.3796    0.0000 </r>
      </set>
      <set comment="kpoint 19">
       <r>    0.6001    1.0000 </r>
       <r>    0.9284    1.0000 </r>
       <r>    1.1476    1.0000 </r>
       <r>    1.5799    1.0000 </r>
       <r>    1.9637    1.0000 </r>
       <r>    6.7291    0.0000 </r>
       <r>    9.8419    0.0000 </r>
       <r>   11.9440    0.0000 </r>
       <r>   16.5509    0.0000 </r>
      </set>
      <set comment="kpoint 20">
       <r>    0.7007    1.0000 </r>
       <r>    0.8989    1.0000 </r>
       <r>    1.1475    1.0000 </r>
       <r>    1.5139    1.0000 </r>
       <r>    1.7713    1.0000 </r>
       <r>    4.4257    1.0000 </r>
       <r>   11.6717    0.0000 </r>
       <r>   13.6072    0.0000 </r>
       <r>   18.3028    0.0000 </r>
      </set>
      <set comment="kpoint 21">
       <r>    0.3561    1.0000 </r>
       <r>    1.0876    1.0000 </r>
       <r>    1.2260    1.0000 </r>
       <r>    1.4090    1.0000 </r>
       <r>    1.8751    1.0000 </r>
       <r>    2.7470    1.0000 </r>
       <r>   12.2383    0.0000 </r>
       <r>   17.7355    0.0000 </r>
       <r>   20.1165    0.0000 </r>
      </set>
      <set comment="kpoint 22">
       <r>    0.2172    1.0000 </r>
       <r>    0.2525    1.0000 </r>
       <r>    2.0094    1.0000 </r>
       <r>    2.0574    1.0000 </r>
       <r>    2.1623    1.0000 </r>
       <r>    5.2262   -0.0079 </r>
       <r>   12.0870    0.0000 </r>
       <r>   14.0956    0.0000 </r>
       <r>   14.8147    0.0000 </r>
      </set>
      <set comment="kpoint 23">
       <r>    0.2265    1.0000 </r>
       <r>    0.3016    1.0000 </r>
       <r>    1.9003    1.0000 </r>
       <r>    2.0091    1.0000 </r>
       <r>    2.2284    1.0000 </r>
       <r>    7.1530    0.0000 </r>
       <r>   10.2731    0.0000 </r>
       <r>   12.5376    0.0000 </r>
       <r>   14.0678    0.0000 </r>
      </set>
      <set comment="kpoint 24">
       <r>    0.3894    1.0000 </r>
       <r>    0.6514    1.0000 </r>
       <r>    1.4609    1.0000 </r>
       <r>    1.7779    1.0000 </r>
       <r>    2.1317    1.0000 </r>
       <r>    8.3086    0.0000 </r>
       <r>    9.3488    0.0000 </r>
       <r>   11.0272    0.0000 </r>
       <r>   15.0767    0.0000 </r>
      </set>
      <set comment="kpoint 25">
       <r>    0.5207    1.0000 </r>
       <r>    0.8510    1.0000 </r>
       <r>    1.3708    1.0000 </r>
       <r>    1.4343    1.0000 </r>
       <r>    2.0563    1.0000 </r>
       <r>    6.9279    0.0000 </r>
       <r>    8.1320    0.0000 </r>
       <r>   14.0886    0.0000 </r>
       <r>   16.7637    0.0000 </r>
      </set>
      <set comment="kpoint 26">
       <r>    0.2490    1.0000 </r>
       <r>    0.9877    1.0000 </r>
       <r>    1.1542    1.0000 </r>
       <r>    1.8052    1.0000 </r>
       <r>    2.0941    1.0000 </r>
       <r>    4.9379    0.9017 </r>
       <r>    8.4826    0.0000 </r>
       <r>   17.7893    0.0000 </r>
       <r>   18.6336    0.0000 </r>
      </set>
      <set comment="kpoint 27">
       <r>    0.1362    1.0000 </r>
       <r>    0.1886    1.0000 </r>
       <r>    2.0801    1.0000 </r>
       <r>    2.1753    1.0000 </r>
       <r>    2.2351    1.0000 </r>
       <r>    6.6856    0.0000 </r>
       <r>   10.1893    0.0000 </r>
       <r>   13.7054    0.0000 </r>
       <r>   14.4095    0.0000 </r>
      </set>
      <set comment="kpoint 28">
       <r>    0.2973    1.0000 </r>
       <r>    0.3716    1.0000 </r>
       <r>    1.7441    1.0000 </r>
       <r>    1.9825    1.0000 </r>
       <r>    2.1570    1.0000 </r>
       <r>    5.6484   -0.0001 </r>
       <r>   12.0456    0.0000 </r>
       <r>   13.0436    0.0000 </r>
       <r>   14.4344    0.0000 </r>
      </set>
      <set comment="kpoint 29">
       <r>    0.4495    1.0000 </r>
       <r>    0.8423    1.0000 </r>
       <r>    1.2767    1.0000 </r>
       <r>    1.5394    1.0000 </r>
       <r>    2.1258    1.0000 </r>
       <r>    5.1116    0.2526 </r>
       <r>   10.3166    0.0000 </r>
       <r>   15.3271    0.0000 </r>
       <r>   16.0021    0.0000 </r>
      </set>
      <set comment="kpoint 30">
       <r>    0.3458    1.0000 </r>
       <r>    0.3805    1.0000 </r>
       <r>    1.8488    1.0000 </r>
       <r>    1.8568    1.0000 </r>
       <r>    2.0613    1.0000 </r>
       <r>    3.7420    1.0000 </r>
       <r>   14.3525    0.0000 </r>
       <r>   14.9339    0.0000 </r>
       <r>   15.5887    0.0000 </r>
      </set>
      <set comment="kpoint 31">
       <r>    0.5211    1.0000 </r>
       <r>    0.6795    1.0000 </r>
       <r>    1.3050    1.0000 </r>
       <r>    1.6236    1.0000 </r>
       <r>    1.9402    1.0000 </r>
       <r>    2.9549    1.0000 </r>
       <r>   14.2290    0.0000 </r>
       <r>   15.9740    0.0000 </r>
       <r>   17.3880    0.0000 </r>
      </set>
      <set comment="kpoint 32">
       <r>    0.3939    1.0000 </r>
       <r>    0.6864    1.0000 </r>
       <r>    1.3548    1.0000 </r>
       <r>    1.4415    1.0000 </r>
       <r>    1.7729    1.0000 </r>
       <r>    1.8511    1.0000 </r>
       <r>   16.8440    0.0000 </r>
       <r>   17.9904    0.0000 </r>
       <r>   19.5523    0.0000 </r>
      </set>
      <set comment="kpoint 33">
       <r>   -0.1185    1.0000 </r>
       <r>    1.0517    1.0000 </r>
       <r>    1.1654    1.0000 </r>
       <r>    1.1654    1.0000 </r>
       <r>    1.6596    1.0000 </r>
       <r>    1.6596    1.0000 </r>
       <r>   16.3279    0.0000 </r>
       <r>   20.5824    0.0000 </r>
       <r>   21.5253    0.0000 </r>
      </set>
      <set comment="kpoint 34">
       <r>    0.3774    1.0000 </r>
       <r>    0.9175    1.0000 </r>
       <r>    1.2525    1.0000 </r>
       <r>    1.2958    1.0000 </r>
       <r>    1.5120    1.0000 </r>
       <r>    2.1387    1.0000 </r>
       <r>   15.1413    0.0000 </r>
       <r>   16.9840    0.0000 </r>
       <r>   21.8616    0.0000 </r>
      </set>
      <set comment="kpoint 35">
       <r>    0.6517    1.0000 </r>
       <r>    0.9397    1.0000 </r>
       <r>    1.2816    1.0000 </r>
       <r>    1.3765    1.0000 </r>
       <r>    1.6147    1.0000 </r>
       <r>    3.4277    1.0000 </r>
       <r>   12.6953    0.0000 </r>
       <r>   14.6123    0.0000 </r>
       <r>   20.6245    0.0000 </r>
      </set>
      <set comment="kpoint 36">
       <r>    0.4691    1.0000 </r>
       <r>    0.9130    1.0000 </r>
       <r>    1.3160    1.0000 </r>
       <r>    1.5190    1.0000 </r>
       <r>    1.9690    1.0000 </r>
       <r>    5.6411   -0.0001 </r>
       <r>    8.9236    0.0000 </r>
       <r>   14.7859    0.0000 </r>
       <r>   18.7078    0.0000 </r>
      </set>
      <set comment="kpoint 37">
       <r>    0.3919    1.0000 </r>
       <r>    0.9060    1.0000 </r>
       <r>    1.3510    1.0000 </r>
       <r>    1.4441    1.0000 </r>
       <r>    2.1537    1.0000 </r>
       <r>    5.6169   -0.0002 </r>
       <r>    8.8615    0.0000 </r>
       <r>   15.7918    0.0000 </r>
       <r>   17.4781    0.0000 </r>
      </set>
      <set comment="kpoint 38">
       <r>    0.4458    1.0000 </r>
       <r>    0.8843    1.0000 </r>
       <r>    1.2561    1.0000 </r>
       <r>    1.4384    1.0000 </r>
       <r>    2.0627    1.0000 </r>
       <r>    3.2303    1.0000 </r>
       <r>   12.6122    0.0000 </r>
       <r>   17.2715    0.0000 </r>
       <r>   17.5368    0.0000 </r>
      </set>
      <set comment="kpoint 39">
       <r>    0.3916    1.0000 </r>
       <r>    1.0623    1.0000 </r>
       <r>    1.1474    1.0000 </r>
       <r>    1.3015    1.0000 </r>
       <r>    1.9341    1.0000 </r>
       <r>    2.2682    1.0000 </r>
       <r>   13.6885    0.0000 </r>
       <r>   18.5400    0.0000 </r>
       <r>   19.5821    0.0000 </r>
      </set>
      <set comment="kpoint 40">
       <r>    0.6198    1.0000 </r>
       <r>    0.9088    1.0000 </r>
       <r>    1.0414    1.0000 </r>
       <r>    1.5938    1.0000 </r>
       <r>    1.8394    1.0000 </r>
       <r>    3.6005    1.0000 </r>
       <r>   12.8617    0.0000 </r>
       <r>   14.7530    0.0000 </r>
       <r>   17.7545    0.0000 </r>
      </set>
      <set comment="kpoint 41">
       <r>    0.7430    1.0000 </r>
       <r>    0.7951    1.0000 </r>
       <r>    1.0459    1.0000 </r>
       <r>    1.6461    1.0000 </r>
       <r>    1.9549    1.0000 </r>
       <r>    5.6978    0.0000 </r>
       <r>   10.8500    0.0000 </r>
       <r>   12.8070    0.0000 </r>
       <r>   15.8832    0.0000 </r>
      </set>
      <set comment="kpoint 42">
       <r>    0.5999    1.0000 </r>
       <r>    0.7766    1.0000 </r>
       <r>    1.2005    1.0000 </r>
       <r>    1.5912    1.0000 </r>
       <r>    2.1085    1.0000 </r>
       <r>    7.5007    0.0000 </r>
       <r>    8.5257    0.0000 </r>
       <r>   13.5138    0.0000 </r>
       <r>   14.6657    0.0000 </r>
      </set>
      <set comment="kpoint 43">
       <r>    0.5498    1.0000 </r>
       <r>    0.7119    1.0000 </r>
       <r>    1.1973    1.0000 </r>
       <r>    1.7711    1.0000 </r>
       <r>    1.9961    1.0000 </r>
       <r>    4.8435    1.0282 </r>
       <r>   11.9995    0.0000 </r>
       <r>   13.8583    0.0000 </r>
       <r>   15.3377    0.0000 </r>
      </set>
      <set comment="kpoint 44">
       <r>    0.3919    1.0000 </r>
       <r>    0.6795    1.0000 </r>
       <r>    1.4641    1.0000 </r>
       <r>    1.6051    1.0000 </r>
       <r>    2.1508    1.0000 </r>
       <r>    4.5059    1.0004 </r>
       <r>   11.7221    0.0000 </r>
       <r>   15.0224    0.0000 </r>
       <r>   16.2574    0.0000 </r>
      </set>
      <set comment="kpoint 45">
       <r>    0.4617    1.0000 </r>
       <r>    0.5649    1.0000 </r>
       <r>    1.3761    1.0000 </r>
       <r>    1.8573    1.0000 </r>
       <r>    2.1325    1.0000 </r>
       <r>    6.3460    0.0000 </r>
       <r>   11.3153    0.0000 </r>
       <r>   12.6955    0.0000 </r>
       <r>   13.6456    0.0000 </r>
      </set>
      <set comment="kpoint 46">
       <r>    0.5660    1.0000 </r>
       <r>    0.7627    1.0000 </r>
       <r>    1.1127    1.0000 </r>
       <r>    1.7100    1.0000 </r>
       <r>    2.2257    1.0000 </r>
       <r>    8.8748    0.0000 </r>
       <r>    9.9007    0.0000 </r>
       <r>   11.1004    0.0000 </r>
       <r>   12.4604    0.0000 </r>
      </set>
      <set comment="kpoint 47">
       <r>    0.6503    1.0000 </r>
       <r>    0.7671    1.0000 </r>
       <r>    1.0623    1.0000 </r>
       <r>    1.7063    1.0000 </r>
       <r>    2.1208    1.0000 </r>
       <r>    7.2142    0.0000 </r>
       <r>   10.2549    0.0000 </r>
       <r>   12.1632    0.0000 </r>
       <r>   13.6874    0.0000 </r>
      </set>
      <set comment="kpoint 48">
       <r>    0.2636    1.0000 </r>
       <r>    0.4479    1.0000 </r>
       <r>    1.7707    1.0000 </r>
       <r>    1.9017    1.0000 </r>
       <r>    2.1689    1.0000 </r>
       <r>    7.5777    0.0000 </r>
       <r>   10.1949    0.0000 </r>
       <r>   11.2380    0.0000 </r>
       <r>   15.1828    0.0000 </r>
      </set>
      <set comment="kpoint 49">
       <r>    0.3947    1.0000 </r>
       <r>    0.5011    1.0000 </r>
       <r>    1.5133    1.0000 </r>
       <r>    1.8517    1.0000 </r>
       <r>    2.2265    1.0000 </r>
       <r>    7.9376    0.0000 </r>
       <r>   10.3698    0.0000 </r>
       <r>   11.4536    0.0000 </r>
       <r>   13.1935    0.0000 </r>
      </set>
      <set comment="kpoint 50">
       <r>    0.3159    1.0000 </r>
       <r>    0.5257    1.0000 </r>
       <r>    1.6563    1.0000 </r>
       <r>    1.7753    1.0000 </r>
       <r>    2.1832    1.0000 </r>
       <r>    6.0198    0.0000 </r>
       <r>   11.0232    0.0000 </r>
       <r>   12.7283    0.0000 </r>
       <r>   15.5483    0.0000 </r>
      </set>
      <set comment="kpoint 51">
       <r>    0.2047    1.0000 </r>
       <r>    1.1332    1.0000 </r>
       <r>    1.1332    1.0000 </r>
       <r>    1.8702    1.0000 </r>
       <r>    1.8702    1.0000 </r>
       <r>    2.1857    1.0000 </r>
       <r>   12.0274    0.0000 </r>
       <r>   20.0338    0.0000 </r>
       <r>   20.7389    0.0000 </r>
      </set>
      <set comment="kpoint 52">
       <r>    0.3766    1.0000 </r>
       <r>    1.0360    1.0000 </r>
       <r>    1.2161    1.0000 </r>
       <r>    1.6172    1.0000 </r>
       <r>    1.8083    1.0000 </r>
       <r>    3.5257    1.0000 </r>
       <r>   10.9870    0.0000 </r>
       <r>   16.6304    0.0000 </r>
       <r>   20.3042    0.0000 </r>
      </set>
      <set comment="kpoint 53">
       <r>    0.6497    1.0000 </r>
       <r>    0.9426    1.0000 </r>
       <r>    1.2279    1.0000 </r>
       <r>    1.4712    1.0000 </r>
       <r>    1.8260    1.0000 </r>
       <r>    5.4609   -0.0067 </r>
       <r>   10.6649    0.0000 </r>
       <r>   12.6560    0.0000 </r>
       <r>   18.5370    0.0000 </r>
      </set>
      <set comment="kpoint 54">
       <r>    0.4573    1.0000 </r>
       <r>    0.8398    1.0000 </r>
       <r>    1.3211    1.0000 </r>
       <r>    1.6624    1.0000 </r>
       <r>    2.0249    1.0000 </r>
       <r>    7.9526    0.0000 </r>
       <r>    8.9810    0.0000 </r>
       <r>   11.3410    0.0000 </r>
       <r>   16.6107    0.0000 </r>
      </set>
      <set comment="kpoint 55">
       <r>    0.3010    1.0000 </r>
       <r>    0.9964    1.0000 </r>
       <r>    1.2190    1.0000 </r>
       <r>    1.5798    1.0000 </r>
       <r>    2.1260    1.0000 </r>
       <r>    4.2231    1.0000 </r>
       <r>    9.7008    0.0000 </r>
       <r>   18.1713    0.0000 </r>
       <r>   18.3290    0.0000 </r>
      </set>
      <set comment="kpoint 56">
       <r>    0.5355    1.0000 </r>
       <r>    0.8371    1.0000 </r>
       <r>    1.2947    1.0000 </r>
       <r>    1.4824    1.0000 </r>
       <r>    2.0641    1.0000 </r>
       <r>    5.9269    0.0000 </r>
       <r>    9.1131    0.0000 </r>
       <r>   14.8921    0.0000 </r>
       <r>   16.0943    0.0000 </r>
      </set>
      <set comment="kpoint 57">
       <r>    0.5796    1.0000 </r>
       <r>    0.8238    1.0000 </r>
       <r>    1.1239    1.0000 </r>
       <r>    1.6700    1.0000 </r>
       <r>    2.1195    1.0000 </r>
       <r>    8.2163    0.0000 </r>
       <r>    9.2417    0.0000 </r>
       <r>   11.4692    0.0000 </r>
       <r>   14.3433    0.0000 </r>
      </set>
      <set comment="kpoint 58">
       <r>    0.4488    1.0000 </r>
       <r>    0.8492    1.0000 </r>
       <r>    1.3589    1.0000 </r>
       <r>    1.5159    1.0000 </r>
       <r>    2.1084    1.0000 </r>
       <r>    7.2257    0.0000 </r>
       <r>    8.2708    0.0000 </r>
       <r>   13.4597    0.0000 </r>
       <r>   16.9013    0.0000 </r>
      </set>
      <set comment="kpoint 59">
       <r>    0.1185    1.0000 </r>
       <r>    1.0517    1.0000 </r>
       <r>    1.0517    1.0000 </r>
       <r>    2.0990    1.0000 </r>
       <r>    2.0990    1.0000 </r>
       <r>    4.4833    1.0002 </r>
       <r>    8.2936    0.0000 </r>
       <r>   19.4654    0.0000 </r>
       <r>   20.0624    0.0000 </r>
      </set>
      <set comment="kpoint 60">
       <r>    0.2734    1.0000 </r>
       <r>    0.9610    1.0000 </r>
       <r>    1.1695    1.0000 </r>
       <r>    1.8029    1.0000 </r>
       <r>    2.0883    1.0000 </r>
       <r>    5.8480    0.0000 </r>
       <r>    7.6058    0.0000 </r>
       <r>   16.9935    0.0000 </r>
       <r>   19.0441    0.0000 </r>
      </set>
     </set>
    </set>
   </array>
  </eigenvalues>
  <separator name="orbital magnetization" >
   <v name="MAGDIPOLOUT">      0.00000000      0.00000000      0.00000000</v>
  </separator>
  <dos>
   <i name="efermi">      5.05003208 </i>
   <total>
    <array>
     <dimension dim="1">gridpoints</dimension>
     <dimension dim="2">spin</dimension>
     <field>energy</field>
     <field>total</field>
     <field>integrated</field>
     <set>
      <set comment="spin 1">
       <r>    -2.7825     0.0000     0.0000 </r>
       <r>    -2.6933     0.0000     0.0000 </r>
       <r>    -2.6041     0.0000     0.0000 </r>
       <r>    -2.5149     0.0000     0.0000 </r>
       <r>    -2.4257     0.0000     0.0000 </r>
       <r>    -2.3365     0.0000     0.0000 </r>
       <r>    -2.2473     0.0000     0.0000 </r>
       <r>    -2.1581     0.0000     0.0000 </r>
       <r>    -2.0689     0.0000     0.0000 </r>
       <r>    -1.9797     0.0000     0.0000 </r>
       <r>    -1.8905     0.0000     0.0000 </r>
       <r>    -1.8013     0.0000     0.0000 </r>
       <r>    -1.7121     0.0000     0.0000 </r>
       <r>    -1.6229     0.0000     0.0000 </r>
       <r>    -1.5337     0.0000     0.0000 </r>
       <r>    -1.4445     0.0000     0.0000 </r>
       <r>    -1.3553     0.0000     0.0000 </r>
       <r>    -1.2661    -0.0001     0.0000 </r>
       <r>    -1.1769    -0.0006    -0.0001 </r>
       <r>    -1.0877    -0.0016    -0.0002 </r>
       <r>    -0.9985    -0.0010    -0.0003 </r>
       <r>    -0.9093     0.0061     0.0002 </r>
       <r>    -0.8201     0.0193     0.0020 </r>
       <r>    -0.7309     0.0323     0.0049 </r>
       <r>    -0.6417     0.0517     0.0095 </r>
       <r>    -0.5525     0.0821     0.0168 </r>
       <r>    -0.4633     0.1012     0.0258 </r>
       <r>    -0.3741     0.1013     0.0348 </r>
       <r>    -0.2849     0.0979     0.0436 </r>
       <r>    -0.1957     0.0853     0.0512 </r>
       <r>    -0.1065     0.0613     0.0567 </r>
       <r>    -0.0173     0.0983     0.0654 </r>
       <r>     0.0719     0.3877     0.1000 </r>
       <r>     0.1611     1.1156     0.1995 </r>
       <r>     0.2503     2.2803     0.4029 </r>
       <r>     0.3395     3.6853     0.7316 </r>
       <r>     0.4287     4.8709     1.1661 </r>
       <r>     0.5179     5.2561     1.6350 </r>
       <r>     0.6071     4.7936     2.0626 </r>
       <r>     0.6963     4.1316     2.4311 </r>
       <r>     0.7855     3.8994     2.7789 </r>
       <r>     0.8747     4.1112     3.1456 </r>
       <r>     0.9639     4.4282     3.5406 </r>
       <r>     1.0530     4.8429     3.9726 </r>
       <r>     1.1422     5.4770     4.4612 </r>
       <r>     1.2314     5.8829     4.9859 </r>
       <r>     1.3206     5.6025     5.4857 </r>
       <r>     1.4098     5.0496     5.9361 </r>
       <r>     1.4990     4.8888     6.3722 </r>
       <r>     1.5882     5.0972     6.8268 </r>
       <r>     1.6774     5.2471     7.2949 </r>
       <r>     1.7666     5.1509     7.7543 </r>
       <r>     1.8558     4.9213     8.1933 </r>
       <r>     1.9450     4.9236     8.6325 </r>
       <r>     2.0342     5.4384     9.1176 </r>
       <r>     2.1234     5.7708     9.6323 </r>
       <r>     2.2126     4.7332    10.0545 </r>
       <r>     2.3018     2.5248    10.2798 </r>
       <r>     2.3910     0.6508    10.3378 </r>
       <r>     2.4802    -0.0665    10.3319 </r>
       <r>     2.5694    -0.0110    10.3309 </r>
       <r>     2.6586     0.2310    10.3515 </r>
       <r>     2.7478     0.3729    10.3848 </r>
       <r>     2.8370     0.3558    10.4165 </r>
       <r>     2.9262     0.2898    10.4423 </r>
       <r>     3.0154     0.2587    10.4654 </r>
       <r>     3.1046     0.2198    10.4850 </r>
       <r>     3.1938     0.1582    10.4991 </r>
       <r>     3.2830     0.1152    10.5094 </r>
       <r>     3.3722     0.1220    10.5203 </r>
       <r>     3.4614     0.1908    10.5373 </r>
       <r>     3.5506     0.2894    10.5631 </r>
       <r>     3.6398     0.3677    10.5959 </r>
       <r>     3.7290     0.4172    10.6331 </r>
       <r>     3.8182     0.4043    10.6692 </r>
       <r>     3.9074     0.2743    10.6937 </r>
       <r>     3.9966     0.1217    10.7045 </r>
       <r>     4.0858     0.1127    10.7146 </r>
       <r>     4.1750     0.2160    10.7338 </r>
       <r>     4.2642     0.2697    10.7579 </r>
       <r>     4.3534     0.2725    10.7822 </r>
       <r>     4.4426     0.3295    10.8116 </r>
       <r>     4.5318     0.3912    10.8465 </r>
       <r>     4.6210     0.3403    10.8768 </r>
       <r>     4.7102     0.2301    10.8974 </r>
       <r>     4.7994     0.2184    10.9169 </r>
       <r>     4.8886     0.3073    10.9443 </r>
       <r>     4.9778     0.3559    10.9760 </r>
       <r>     5.0670     0.3278    11.0053 </r>
       <r>     5.1562     0.2840    11.0306 </r>
       <r>     5.2454     0.2361    11.0517 </r>
       <r>     5.3346     0.1885    11.0685 </r>
       <r>     5.4238     0.1803    11.0846 </r>
       <r>     5.5130     0.2614    11.1079 </r>
       <r>     5.6022     0.4394    11.1471 </r>
       <r>     5.6914     0.5713    11.1980 </r>
       <r>     5.7806     0.5212    11.2445 </r>
       <r>     5.8698     0.3983    11.2800 </r>
       <r>     5.9590     0.3225    11.3088 </r>
       <r>     6.0482     0.2437    11.3305 </r>
       <r>     6.1374     0.1797    11.3466 </r>
       <r>     6.2266     0.2298    11.3671 </r>
       <r>     6.3158     0.3209    11.3957 </r>
       <r>     6.4050     0.2824    11.4209 </r>
       <r>     6.4942     0.1639    11.4355 </r>
       <r>     6.5834     0.1880    11.4523 </r>
       <r>     6.6726     0.3677    11.4851 </r>
       <r>     6.7618     0.4608    11.5262 </r>
       <r>     6.8510     0.3682    11.5590 </r>
       <r>     6.9402     0.2420    11.5806 </r>
       <r>     7.0294     0.2166    11.5999 </r>
       <r>     7.1186     0.3168    11.6282 </r>
       <r>     7.2078     0.4292    11.6665 </r>
       <r>     7.2970     0.3913    11.7014 </r>
       <r>     7.3862     0.2895    11.7272 </r>
       <r>     7.4754     0.3198    11.7557 </r>
       <r>     7.5646     0.4142    11.7927 </r>
       <r>     7.6538     0.4069    11.8290 </r>
       <r>     7.7430     0.3256    11.8580 </r>
       <r>     7.8322     0.2818    11.8832 </r>
       <r>     7.9214     0.2977    11.9097 </r>
       <r>     8.0106     0.3244    11.9386 </r>
       <r>     8.0998     0.3722    11.9718 </r>
       <r>     8.1890     0.4824    12.0149 </r>
       <r>     8.2782     0.5675    12.0655 </r>
       <r>     8.3674     0.5384    12.1135 </r>
       <r>     8.4566     0.4676    12.1552 </r>
       <r>     8.5458     0.3872    12.1898 </r>
       <r>     8.6350     0.2381    12.2110 </r>
       <r>     8.7242     0.1261    12.2222 </r>
       <r>     8.8134     0.2110    12.2411 </r>
       <r>     8.9026     0.3909    12.2759 </r>
       <r>     8.9918     0.4477    12.3159 </r>
       <r>     9.0810     0.3887    12.3505 </r>
       <r>     9.1702     0.3598    12.3826 </r>
       <r>     9.2594     0.3811    12.4166 </r>
       <r>     9.3486     0.3653    12.4492 </r>
       <r>     9.4378     0.2755    12.4738 </r>
       <r>     9.5270     0.1857    12.4904 </r>
       <r>     9.6162     0.1989    12.5081 </r>
       <r>     9.7054     0.3272    12.5373 </r>
       <r>     9.7946     0.4916    12.5811 </r>
       <r>     9.8838     0.5830    12.6331 </r>
       <r>     9.9730     0.4999    12.6777 </r>
       <r>    10.0622     0.3271    12.7069 </r>
       <r>    10.1514     0.3574    12.7388 </r>
       <r>    10.2406     0.6430    12.7962 </r>
       <r>    10.3298     0.8166    12.8690 </r>
       <r>    10.4190     0.6179    12.9241 </r>
       <r>    10.5082     0.2592    12.9472 </r>
       <r>    10.5974     0.0750    12.9539 </r>
       <r>    10.6866     0.1164    12.9643 </r>
       <r>    10.7758     0.2349    12.9853 </r>
       <r>    10.8650     0.3398    13.0156 </r>
       <r>    10.9542     0.4608    13.0567 </r>
       <r>    11.0434     0.6043    13.1106 </r>
       <r>    11.1326     0.6739    13.1707 </r>
       <r>    11.2218     0.6360    13.2274 </r>
       <r>    11.3110     0.5888    13.2799 </r>
       <r>    11.4002     0.5781    13.3315 </r>
       <r>    11.4894     0.5298    13.3788 </r>
       <r>    11.5786     0.4171    13.4160 </r>
       <r>    11.6678     0.3142    13.4440 </r>
       <r>    11.7570     0.2462    13.4660 </r>
       <r>    11.8462     0.2432    13.4876 </r>
       <r>    11.9354     0.4038    13.5237 </r>
       <r>    12.0246     0.6480    13.5815 </r>
       <r>    12.1138     0.7382    13.6473 </r>
       <r>    12.2030     0.6056    13.7013 </r>
       <r>    12.2922     0.3832    13.7355 </r>
       <r>    12.3814     0.2520    13.7580 </r>
       <r>    12.4706     0.3123    13.7859 </r>
       <r>    12.5598     0.4990    13.8304 </r>
       <r>    12.6490     0.6814    13.8911 </r>
       <r>    12.7382     0.7620    13.9591 </r>
       <r>    12.8274     0.6918    14.0208 </r>
       <r>    12.9166     0.5483    14.0697 </r>
       <r>    13.0058     0.4751    14.1121 </r>
       <r>    13.0950     0.4809    14.1550 </r>
       <r>    13.1842     0.4665    14.1966 </r>
       <r>    13.2734     0.3929    14.2317 </r>
       <r>    13.3626     0.3221    14.2604 </r>
       <r>    13.4518     0.3835    14.2946 </r>
       <r>    13.5410     0.6126    14.3492 </r>
       <r>    13.6302     0.8343    14.4237 </r>
       <r>    13.7194     0.8402    14.4986 </r>
       <r>    13.8086     0.6557    14.5571 </r>
       <r>    13.8978     0.5028    14.6019 </r>
       <r>    13.9870     0.4973    14.6463 </r>
       <r>    14.0762     0.5621    14.6964 </r>
       <r>    14.1654     0.5781    14.7480 </r>
       <r>    14.2546     0.5580    14.7978 </r>
       <r>    14.3438     0.5754    14.8491 </r>
       <r>    14.4330     0.5516    14.8983 </r>
       <r>    14.5222     0.4425    14.9378 </r>
       <r>    14.6114     0.4418    14.9772 </r>
       <r>    14.7006     0.6386    15.0341 </r>
       <r>    14.7898     0.8111    15.1065 </r>
       <r>    14.8790     0.7885    15.1768 </r>
       <r>    14.9682     0.6567    15.2354 </r>
       <r>    15.0574     0.5667    15.2859 </r>
       <r>    15.1466     0.6048    15.3399 </r>
       <r>    15.2358     0.7738    15.4089 </r>
       <r>    15.3250     0.9171    15.4907 </r>
       <r>    15.4142     0.8105    15.5630 </r>
       <r>    15.5034     0.5233    15.6097 </r>
       <r>    15.5926     0.3774    15.6434 </r>
       <r>    15.6818     0.4614    15.6845 </r>
       <r>    15.7710     0.5963    15.7377 </r>
       <r>    15.8602     0.6696    15.7975 </r>
       <r>    15.9494     0.6901    15.8590 </r>
       <r>    16.0386     0.6346    15.9156 </r>
       <r>    16.1278     0.4739    15.9579 </r>
       <r>    16.2170     0.3080    15.9854 </r>
       <r>    16.3062     0.2571    16.0083 </r>
       <r>    16.3954     0.3120    16.0361 </r>
       <r>    16.4846     0.4457    16.0759 </r>
       <r>    16.5738     0.6392    16.1329 </r>
       <r>    16.6630     0.7731    16.2019 </r>
       <r>    16.7522     0.7403    16.2679 </r>
       <r>    16.8414     0.5865    16.3202 </r>
       <r>    16.9306     0.4512    16.3605 </r>
       <r>    17.0198     0.4281    16.3986 </r>
       <r>    17.1090     0.4902    16.4424 </r>
       <r>    17.1982     0.5331    16.4899 </r>
       <r>    17.2874     0.4910    16.5337 </r>
       <r>    17.3766     0.4065    16.5700 </r>
       <r>    17.4658     0.3274    16.5992 </r>
       <r>    17.5550     0.2643    16.6228 </r>
       <r>    17.6442     0.3133    16.6507 </r>
       <r>    17.7334     0.5382    16.6987 </r>
       <r>    17.8226     0.7374    16.7645 </r>
       <r>    17.9118     0.6824    16.8254 </r>
       <r>    18.0010     0.4521    16.8657 </r>
       <r>    18.0902     0.2821    16.8909 </r>
       <r>    18.1794     0.3080    16.9183 </r>
       <r>    18.2686     0.4901    16.9621 </r>
       <r>    18.3578     0.6300    17.0182 </r>
       <r>    18.4470     0.6092    17.0726 </r>
       <r>    18.5362     0.5473    17.1214 </r>
       <r>    18.6254     0.5198    17.1678 </r>
       <r>    18.7146     0.4303    17.2062 </r>
       <r>    18.8038     0.2817    17.2313 </r>
       <r>    18.8930     0.2017    17.2493 </r>
       <r>    18.9822     0.2053    17.2676 </r>
       <r>    19.0714     0.1960    17.2851 </r>
       <r>    19.1606     0.1421    17.2978 </r>
       <r>    19.2498     0.1062    17.3072 </r>
       <r>    19.3390     0.1737    17.3227 </r>
       <r>    19.4282     0.3802    17.3566 </r>
       <r>    19.5174     0.5867    17.4090 </r>
       <r>    19.6066     0.5561    17.4586 </r>
       <r>    19.6958     0.2963    17.4850 </r>
       <r>    19.7850     0.1107    17.4949 </r>
       <r>    19.8742     0.2221    17.5147 </r>
       <r>    19.9634     0.5092    17.5601 </r>
       <r>    20.0526     0.6866    17.6213 </r>
       <r>    20.1418     0.6553    17.6798 </r>
       <r>    20.2310     0.5207    17.7262 </r>
       <r>    20.3202     0.3734    17.7595 </r>
       <r>    20.4094     0.2447    17.7814 </r>
       <r>    20.4986     0.1680    17.7964 </r>
       <r>    20.5878     0.1484    17.8096 </r>
       <r>    20.6770     0.1395    17.8220 </r>
       <r>    20.7662     0.1225    17.8330 </r>
       <r>    20.8554     0.1373    17.8452 </r>
       <r>    20.9446     0.1756    17.8609 </r>
       <r>    21.0338     0.1712    17.8761 </r>
       <r>    21.1230     0.1425    17.8888 </r>
       <r>    21.2122     0.1610    17.9032 </r>
       <r>    21.3014     0.1934    17.9205 </r>
       <r>    21.3906     0.1754    17.9361 </r>
       <r>    21.4798     0.1423    17.9488 </r>
       <r>    21.5690     0.1205    17.9595 </r>
       <r>    21.6582     0.0817    17.9668 </r>
       <r>    21.7474     0.0558    17.9718 </r>
       <r>    21.8366     0.0818    17.9791 </r>
       <r>    21.9258     0.1109    17.9890 </r>
       <r>    22.0150     0.0888    17.9969 </r>
       <r>    22.1042     0.0382    18.0003 </r>
       <r>    22.1934     0.0045    18.0007 </r>
       <r>    22.2826    -0.0043    18.0003 </r>
       <r>    22.3718    -0.0028    18.0001 </r>
       <r>    22.4610    -0.0008    18.0000 </r>
       <r>    22.5502    -0.0002    18.0000 </r>
       <r>    22.6394     0.0000    18.0000 </r>
       <r>    22.7285     0.0000    18.0000 </r>
       <r>    22.8177     0.0000    18.0000 </r>
       <r>    22.9069     0.0000    18.0000 </r>
       <r>    22.9961     0.0000    18.0000 </r>
       <r>    23.0853     0.0000    18.0000 </r>
       <r>    23.1745     0.0000    18.0000 </r>
       <r>    23.2637     0.0000    18.0000 </r>
       <r>    23.3529     0.0000    18.0000 </r>
       <r>    23.4421     0.0000    18.0000 </r>
       <r>    23.5313     0.0000    18.0000 </r>
       <r>    23.6205     0.0000    18.0000 </r>
       <r>    23.7097     0.0000    18.0000 </r>
       <r>    23.7989     0.0000    18.0000 </r>
       <r>    23.8881     0.0000    18.0000 </r>
       <r>    23.9773     0.0000    18.0000 </r>
      </set>
     </set>
    </array>
   </total>
  </dos>
 </calculation>
 <structure name="finalpos" >
  <crystal>
   <varray name="basis" >
    <v>       3.18127341       0.00000000       0.00000000 </v>
    <v>       1.59063670       2.75506359       0.00000000 </v>
    <v>       1.59063670       0.91835453       2.59749886 </v>
   </varray>
   <i name="volume">     22.76606587 </i>
   <varray name="rec_basis" >
    <v>       0.31433953      -0.18148401      -0.12832858 </v>
    <v>       0.00000000       0.36296803      -0.12832858 </v>
    <v>       0.00000000       0.00000000       0.38498573 </v>
   </varray>
  </crystal>
  <varray name="positions" >
   <v>       0.00000000       0.00000000       0.00000000 </v>
  </varray>
 </structure>
</modeling>
