unknown system                          
           1
     3.181273    0.000000    0.000000
     1.590637    2.755064    0.000000
     1.590637    0.918355    2.597499
   Ag
   1
Direct configuration=     1
   0.00000000  0.00000000  0.00000000
