unknown system                          
   1.00000000000000     
     2.915684    0.000000    0.000000
     1.457842    2.525057    0.000000
     1.457842    0.841686    2.380646
   Pd
     1
Direct
  0.000000  0.000000  0.000000
 
   28   28   28
  110.75      106.93      96.607      82.424      67.093      52.344      38.954      27.394      18.214      11.813    
  7.9932      5.8700      4.5906      3.9322      3.7346      3.9322      4.5906      5.8700      7.9932      11.813    
  18.214      27.394      38.954      52.344      67.093      82.424      96.607      106.93      106.93      99.874    
  87.704      73.141      58.363      44.540      32.246      22.012      14.375      9.4651      6.7088      5.0886    
  4.1593      3.7545      3.7558      4.1606      5.0874      6.7075      9.4663      14.376      22.011      32.244    
  44.542      58.365      73.140      87.703      99.875      106.93      96.606      87.703      75.318      61.674    
  48.269      35.916      25.220      16.791      10.990      7.5584      5.6074      4.4225      3.8144      3.6313    
  3.8144      4.4225      5.6074      7.5584      10.990      16.791      25.220      35.916      48.269      61.674    
  75.318      87.703      96.606      99.875      82.424      73.140      61.673      49.582      37.897      27.360    
  18.668      12.336      8.3623      6.0934      4.6895      3.8983      3.5556      3.5547      3.8975      4.6903    
  6.0942      8.3615      12.335      18.669      27.361      37.896      49.582      61.674      73.141      82.424    
  87.703      87.704      67.095      58.364      48.269      37.897      28.113      19.694      13.260      9.0003    
  6.4912      4.9313      3.9874      3.5113      3.3694      3.5113      3.9875      4.9313      6.4912      9.0003    
  13.260      19.694      28.113      37.897      48.269      58.364      67.095      73.140      75.317      73.140    
  52.345      44.541      35.917      27.361      19.694      13.590      9.3558      6.7542      5.1136      4.0668    
  3.4874      3.2387      3.2389      3.4877      4.0665      5.1134      6.7545      9.3561      13.590      19.694    
  27.361      35.917      44.541      52.344      58.364      61.673      61.673      58.364      38.953      32.245    
  25.220      18.668      13.260      9.3560      6.8474      5.2115      4.1200      3.4751      3.1511      3.0543    
  3.1511      3.4751      4.1201      5.2115      6.8474      9.3560      13.260      18.668      25.220      32.245    
  38.953      44.541      48.269      49.582      48.269      44.541      27.394      22.012      16.791      12.335    
  9.0004      6.7543      5.2115      4.1390      3.4695      3.0993      2.9389      2.9389      3.0993      3.4694    
  4.1389      5.2115      6.7544      9.0003      12.335      16.791      22.012      27.394      32.245      35.917    
  37.897      37.897      35.917      32.245      18.215      14.376      10.990      8.3619      6.4909      5.1135    
  4.1200      3.4695      3.0821      2.8828      2.8219      2.8827      3.0821      3.4695      4.1200      5.1135    
  6.4909      8.3619      10.990      14.376      18.215      22.012      25.220      27.361      28.112      27.361    
  25.220      22.012      11.813      9.4657      7.5591      6.0938      4.9313      4.0667      3.4749      3.0993    
  2.8828      2.7847      2.7846      2.8827      3.0994      3.4751      4.0666      4.9312      6.0939      7.5592    
  9.4657      11.813      14.376      16.791      18.668      19.694      19.694      18.668      16.791      14.376    
  7.9923      6.7082      5.6074      4.6899      3.9878      3.4876      3.1511      2.9388      2.8220      2.7847    
  2.8220      2.9388      3.1511      3.4876      3.9878      4.6899      5.6074      6.7082      7.9924      9.4657    
  10.990      12.335      13.260      13.590      13.260      12.335      10.990      9.4656      5.8700      5.0880    
  4.4217      3.8979      3.5113      3.2388      3.0544      2.9389      2.8827      2.8828      2.9389      3.0543    
  3.2388      3.5113      3.8979      4.4217      5.0880      5.8701      6.7082      7.5592      8.3619      9.0004    
  9.3559      9.3559      9.0003      8.3619      7.5591      6.7081      4.5915      4.1599      3.8144      3.5552    
  3.3690      3.2388      3.1511      3.0993      3.0820      3.0993      3.1511      3.2388      3.3690      3.5552    
  3.8144      4.1599      4.5915      5.0880      5.6074      6.0939      6.4909      6.7544      6.8474      6.7544    
  6.4908      6.0938      5.6074      5.0880      3.9322      3.7551      3.6320      3.5552      3.5113      3.4875    
  3.4750      3.4694      3.4695      3.4750      3.4875      3.5113      3.5552      3.6320      3.7551      3.9322    
  4.1599      4.4217      4.6899      4.9312      5.1135      5.2115      5.2115      5.1135      4.9313      4.6899    
  4.4217      4.1600      3.7337      3.7552      3.8144      3.8979      3.9878      4.0667      4.1201      4.1389    
  4.1200      4.0666      3.9878      3.8979      3.8144      3.7551      3.7337      3.7551      3.8144      3.8979    
  3.9878      4.0666      4.1200      4.1389      4.1201      4.0667      3.9878      3.8979      3.8144      3.7552    
  3.9322      4.1600      4.4217      4.6899      4.9313      5.1135      5.2115      5.2115      5.1135      4.9312    
  4.6899      4.4217      4.1599      3.9322      3.7551      3.6320      3.5552      3.5113      3.4875      3.4750    
  3.4695      3.4694      3.4750      3.4875      3.5113      3.5552      3.6320      3.7551      4.5915      5.0880    
  5.6074      6.0938      6.4908      6.7544      6.8474      6.7544      6.4909      6.0939      5.6074      5.0880    
  4.5915      4.1599      3.8144      3.5552      3.3690      3.2388      3.1511      3.0993      3.0820      3.0993    
  3.1511      3.2388      3.3690      3.5552      3.8144      4.1599      5.8700      6.7081      7.5591      8.3619    
  9.0003      9.3559      9.3559      9.0004      8.3619      7.5592      6.7082      5.8701      5.0880      4.4217    
  3.8979      3.5113      3.2388      3.0543      2.9389      2.8828      2.8827      2.9389      3.0544      3.2388    
  3.5113      3.8979      4.4217      5.0880      7.9923      9.4656      10.990      12.335      13.260      13.590    
  13.260      12.335      10.990      9.4657      7.9924      6.7082      5.6074      4.6899      3.9878      3.4876    
  3.1511      2.9388      2.8220      2.7847      2.8220      2.9388      3.1511      3.4876      3.9878      4.6899    
  5.6074      6.7082      11.813      14.376      16.791      18.668      19.694      19.694      18.668      16.791    
  14.376      11.813      9.4657      7.5592      6.0939      4.9312      4.0666      3.4751      3.0994      2.8827    
  2.7846      2.7847      2.8828      3.0993      3.4749      4.0667      4.9313      6.0938      7.5591      9.4657    
  18.215      22.012      25.220      27.361      28.112      27.361      25.220      22.012      18.215      14.376    
  10.990      8.3619      6.4909      5.1135      4.1200      3.4695      3.0821      2.8827      2.8219      2.8828    
  3.0821      3.4695      4.1200      5.1135      6.4909      8.3619      10.990      14.376      27.394      32.245    
  35.917      37.897      37.897      35.917      32.245      27.394      22.012      16.791      12.335      9.0003    
  6.7544      5.2115      4.1389      3.4694      3.0993      2.9389      2.9389      3.0993      3.4695      4.1390    
  5.2115      6.7543      9.0004      12.335      16.791      22.012      38.953      44.541      48.269      49.582    
  48.269      44.541      38.953      32.245      25.220      18.668      13.260      9.3560      6.8474      5.2115    
  4.1201      3.4751      3.1511      3.0543      3.1511      3.4751      4.1200      5.2115      6.8474      9.3560    
  13.260      18.668      25.220      32.245      52.345      58.364      61.673      61.673      58.364      52.344    
  44.541      35.917      27.361      19.694      13.590      9.3561      6.7545      5.1134      4.0665      3.4877    
  3.2389      3.2387      3.4874      4.0668      5.1136      6.7542      9.3558      13.590      19.694      27.361    
  35.917      44.541      67.095      73.140      75.317      73.140      67.095      58.364      48.269      37.897    
  28.113      19.694      13.260      9.0003      6.4912      4.9313      3.9875      3.5113      3.3694      3.5113    
  3.9874      4.9313      6.4912      9.0003      13.260      19.694      28.113      37.897      48.269      58.364    
  82.424      87.704      87.703      82.424      73.141      61.674      49.582      37.896      27.361      18.669    
  12.335      8.3615      6.0942      4.6903      3.8975      3.5547      3.5556      3.8983      4.6895      6.0934    
  8.3623      12.336      18.668      27.360      37.897      49.582      61.673      73.140      96.606      99.875    
  96.606      87.703      75.318      61.674      48.269      35.916      25.220      16.791      10.990      7.5584    
  5.6074      4.4225      3.8144      3.6313      3.8144      4.4225      5.6074      7.5584      10.990      16.791    
  25.220      35.916      48.269      61.674      75.318      87.703      106.93      106.93      99.875      87.703    
  73.140      58.365      44.542      32.244      22.011      14.376      9.4663      6.7075      5.0874      4.1606    
  3.7558      3.7545      4.1593      5.0886      6.7088      9.4651      14.375      22.012      32.246      44.540    
  58.363      73.141      87.704      99.874      106.93      99.874      87.704      73.141      58.363      44.540    
  32.246      22.012      14.375      9.4651      6.7088      5.0886      4.1593      3.7545      3.7558      4.1606    
  5.0874      6.7075      9.4663      14.376      22.011      32.244      44.542      58.365      73.140      87.703    
  99.875      106.93      99.875      90.455      77.430      63.210      49.380      36.736      25.818      17.197    
  11.234      7.6919      5.6928      4.4805      3.8568      3.6687      3.8568      4.4805      5.6928      7.6919    
  11.234      17.197      25.818      36.736      49.380      63.210      77.430      90.455      99.875      103.34    
  87.704      77.429      64.928      51.987      39.681      28.677      19.588      12.913      8.6848      6.2844    
  4.8189      3.9883      3.6275      3.6265      3.9873      4.8198      6.2853      8.6838      12.912      19.589    
  28.678      39.680      51.986      64.929      77.430      87.703      93.600      93.601      73.141      63.209    
  51.986      40.706      30.208      21.185      14.225      9.5550      6.8048      5.1415      4.1289      3.6159    
  3.4628      3.6159      4.1289      5.1415      6.8048      9.5549      14.224      21.185      30.208      40.706    
  51.986      63.209      73.141      80.139      82.682      80.139      58.364      49.381      39.680      30.207    
  21.744      14.944      10.154      7.2013      5.4068      4.2602      3.6220      3.3477      3.3481      3.6225    
  4.2597      5.4063      7.2017      10.155      14.944      21.744      30.207      39.681      49.380      58.364    
  65.455      69.416      69.416      65.455      44.541      36.737      28.678      21.184      14.944      10.368    
  7.4193      5.5804      4.3597      3.6343      3.2698      3.1610      3.2698      3.6343      4.3597      5.5804    
  7.4193      10.369      14.944      21.184      28.678      36.737      44.541      51.174      55.681      57.285    
  55.681      51.174      32.245      25.818      19.589      14.225      10.154      7.4193      5.6412      4.4136    
  3.6438      3.2196      3.0368      3.0368      3.2196      3.6439      4.4136      5.6411      7.4192      10.154    
  14.225      19.589      25.818      32.245      38.094      42.581      45.027      45.027      42.581      38.094    
  22.012      17.197      12.912      9.5550      7.2015      5.5805      4.4136      3.6475      3.1946      2.9644    
  2.8948      2.9644      3.1946      3.6474      4.4136      5.5805      7.2015      9.5549      12.912      17.197    
  22.012      26.764      30.795      33.502      34.457      33.502      30.795      26.764      14.376      11.234    
  8.6843      6.8043      5.4066      4.3598      3.6438      3.1945      2.9405      2.8275      2.8274      2.9404    
  3.1946      3.6439      4.3597      5.4064      6.8043      8.6844      11.234      14.376      17.783      20.981    
  23.465      24.824      24.824      23.465      20.980      17.783      9.4657      7.6927      6.2848      5.1414    
  4.2600      3.6342      3.2196      2.9643      2.8274      2.7845      2.8274      2.9643      3.2196      3.6342    
  4.2600      5.1414      6.2849      7.6927      9.4657      11.551      13.714      15.618      16.924      17.389    
  16.924      15.618      13.714      11.551      6.7081      5.6928      4.8194      4.1293      3.6222      3.2698    
  3.0368      2.8948      2.8274      2.8274      2.8949      3.0368      3.2698      3.6223      4.1294      4.8193    
  5.6928      6.7082      7.8492      9.0920      10.298      11.266      11.806      11.806      11.266      10.298    
  9.0920      7.8491      5.0880      4.4797      3.9878      3.6159      3.3479      3.1611      3.0368      2.9644    
  2.9404      2.9644      3.0368      3.1611      3.3479      3.6159      3.9878      4.4797      5.0880      5.7803    
  6.4964      7.1795      7.7703      8.1786      8.3250      8.1786      7.7703      7.1794      6.4963      5.7803    
  4.1599      3.8568      3.6270      3.4623      3.3479      3.2698      3.2196      3.1945      3.1945      3.2196    
  3.2698      3.3479      3.4623      3.6270      3.8568      4.1599      4.5304      4.9442      5.3611      5.7323    
  6.0107      6.1598      6.1598      6.0107      5.7323      5.3611      4.9442      4.5304      3.7551      3.6695    
  3.6270      3.6159      3.6223      3.6341      3.6438      3.6474      3.6439      3.6342      3.6222      3.6159    
  3.6270      3.6695      3.7551      3.8877      4.0603      4.2550      4.4471      4.6093      4.7178      4.7559    
  4.7178      4.6094      4.4471      4.2551      4.0603      3.8877      3.7552      3.8568      3.9878      4.1294    
  4.2600      4.3597      4.4136      4.4136      4.3597      4.2600      4.1294      3.9878      3.8568      3.7551    
  3.6944      3.6760      3.6921      3.7289      3.7714      3.8071      3.8270      3.8270      3.8071      3.7714    
  3.7289      3.6921      3.6760      3.6944      4.1600      4.4797      4.8193      5.1415      5.4065      5.5806    
  5.6411      5.5805      5.4065      5.1415      4.8193      4.4797      4.1599      3.8877      3.6760      3.5236    
  3.4195      3.3503      3.3055      3.2795      3.2709      3.2795      3.3054      3.3503      3.4195      3.5236    
  3.6760      3.8877      5.0880      5.6928      6.2849      6.8043      7.2015      7.4193      7.4193      7.2015    
  6.8043      6.2849      5.6928      5.0880      4.5304      4.0603      3.6921      3.4195      3.2247      3.0900    
  3.0034      2.9605      2.9605      3.0034      3.0900      3.2247      3.4195      3.6921      4.0603      4.5304    
  6.7081      7.6926      8.6843      9.5550      10.154      10.368      10.154      9.5550      8.6843      7.6927    
  6.7082      5.7804      4.9442      4.2550      3.7289      3.3503      3.0900      2.9205      2.8243      2.7930    
  2.8244      2.9206      3.0900      3.3503      3.7289      4.2550      4.9442      5.7803      9.4657      11.234    
  12.912      14.225      14.944      14.944      14.225      12.912      11.234      9.4657      7.8491      6.4964    
  5.3611      4.4470      3.7714      3.3055      3.0035      2.8243      2.7411      2.7412      2.8244      3.0034    
  3.3054      3.7715      4.4471      5.3610      6.4963      7.8492      14.376      17.197      19.589      21.185    
  21.744      21.185      19.589      17.197      14.376      11.551      9.0919      7.1795      5.7324      4.6093    
  3.8070      3.2795      2.9606      2.7930      2.7411      2.7930      2.9606      3.2795      3.8070      4.6093    
  5.7324      7.1795      9.0919      11.551      22.012      25.818      28.678      30.207      30.207      28.678    
  25.818      22.012      17.783      13.714      10.298      7.7703      6.0108      4.7178      3.8270      3.2709    
  2.9605      2.8244      2.8243      2.9604      3.2710      3.8271      4.7177      6.0106      7.7704      10.298    
  13.714      17.783      32.245      36.737      39.681      40.706      39.681      36.737      32.245      26.764    
  20.980      15.617      11.266      8.1786      6.1598      4.7559      3.8270      3.2795      3.0034      2.9206    
  3.0034      3.2795      3.8271      4.7559      6.1598      8.1786      11.266      15.618      20.981      26.764    
  44.541      49.380      51.986      51.986      49.381      44.541      38.094      30.795      23.465      16.924    
  11.806      8.3251      6.1599      4.7177      3.8070      3.3055      3.0900      3.0899      3.3054      3.8071    
  4.7178      6.1597      8.3249      11.806      16.924      23.465      30.795      38.094      58.364      63.209    
  64.928      63.209      58.364      51.174      42.581      33.502      24.824      17.389      11.805      8.1786    
  6.0110      4.6094      3.7712      3.3503      3.2250      3.3503      3.7712      4.6093      6.0109      8.1786    
  11.805      17.389      24.824      33.502      42.581      51.174      73.141      77.430      77.430      73.140    
  65.455      55.681      45.027      34.457      24.824      16.924      11.265      7.7700      5.7326      4.4474    
  3.7286      3.4192      3.4198      3.7292      4.4468      5.7320      7.7706      11.266      16.924      24.824    
  34.457      45.027      55.680      65.455      87.704      90.456      87.704      80.138      69.416      57.286    
  45.027      33.502      23.465      15.618      10.298      7.1788      5.3611      4.2557      3.6921      3.5230    
  3.6921      4.2557      5.3611      7.1789      10.298      15.618      23.465      33.502      45.027      57.286    
  69.416      80.138      99.874      99.875      93.601      82.682      69.415      55.681      42.581      30.794    
  20.980      13.715      9.0925      6.4958      4.9437      4.0608      3.6766      3.6755      4.0597      4.9447    
  6.4969      9.0915      13.714      20.981      30.795      42.580      55.680      69.416      82.683      93.600    
  106.93      103.34      93.601      80.139      65.454      51.174      38.095      26.764      17.782      11.551    
  7.8500      5.7803      4.5296      3.8877      3.6952      3.8877      4.5296      5.7803      7.8500      11.551    
  17.782      26.764      38.095      51.174      65.454      80.139      93.601      103.34      96.606      87.703    
  75.318      61.674      48.269      35.916      25.220      16.791      10.990      7.5584      5.6074      4.4225    
  3.8144      3.6313      3.8144      4.4225      5.6074      7.5584      10.990      16.791      25.220      35.916    
  48.269      61.674      75.318      87.703      96.606      99.875      87.704      77.429      64.928      51.987    
  39.681      28.677      19.588      12.913      8.6848      6.2844      4.8189      3.9883      3.6275      3.6265    
  3.9873      4.8198      6.2853      8.6838      12.912      19.589      28.678      39.680      51.986      64.929    
  77.430      87.703      93.600      93.601      75.318      64.928      53.281      41.670      30.923      21.697    
  14.561      9.7506      6.9143      5.2145      4.1781      3.6522      3.4952      3.6522      4.1781      5.2145    
  6.9143      9.7506      14.561      21.697      30.923      41.670      53.281      64.928      75.318      82.682    
  85.366      82.683      61.674      51.987      41.670      31.699      22.825      15.669      10.589      7.4432    
  5.5624      4.3635      3.6938      3.4055      3.4060      3.6943      4.3630      5.5619      7.4436      10.589    
  15.669      22.824      31.700      41.670      51.986      61.673      69.416      73.777      73.776      69.415    
  48.269      39.681      30.923      22.824      16.058      11.051      7.8028      5.8199      4.5169      3.7387    
  3.3470      3.2301      3.3471      3.7387      4.5169      5.8199      7.8028      11.051      16.058      22.824    
  30.923      39.681      48.269      55.680      60.783      62.612      60.783      55.680      35.917      28.678    
  21.697      15.669      11.051      7.9306      5.9573      4.6186      3.7742      3.3089      3.1087      3.1086    
  3.3088      3.7742      4.6186      5.9572      7.9305      11.051      15.669      21.697      28.678      35.917    
  42.581      47.759      50.611      50.611      47.759      42.581      25.220      19.589      14.561      10.589    
  7.8028      5.9573      4.6541      3.7939      3.2865      3.0302      2.9532      3.0302      3.2865      3.7938    
  4.6541      5.9573      7.8028      10.589      14.561      19.589      25.220      30.795      35.560      38.789    
  39.933      38.789      35.560      30.795      16.791      12.912      9.7505      7.4434      5.8202      4.6186    
  3.7938      3.2789      2.9911      2.8645      2.8645      2.9910      3.2790      3.7939      4.6186      5.8201    
  7.4434      9.7506      12.912      16.791      20.981      24.914      27.981      29.665      29.665      27.981    
  24.914      20.980      10.990      8.6844      6.9138      5.5621      4.5169      3.7743      3.2864      2.9910    
  2.8355      2.7874      2.8355      2.9910      3.2864      3.7743      4.5169      5.5621      6.9138      8.6844    
  10.990      13.714      16.533      19.011      20.712      21.318      20.712      19.011      16.533      13.714    
  7.5591      6.2849      5.2145      4.3632      3.7384      3.3089      3.0302      2.8645      2.7873      2.7874    
  2.8645      3.0301      3.3088      3.7385      4.3633      5.2145      6.2848      7.5592      9.0920      10.806    
  12.481      13.826      14.577      14.577      13.826      12.481      10.806      9.0919      5.6074      4.8193    
  4.1786      3.6940      3.3470      3.1087      2.9532      2.8645      2.8355      2.8645      2.9532      3.1087    
  3.3470      3.6940      4.1786      4.8193      5.6074      6.4964      7.4426      8.4063      9.2676      9.8707    
  10.088      9.8707      9.2676      8.4063      7.4426      6.4963      4.4217      3.9878      3.6522      3.4057    
  3.2303      3.1087      3.0302      2.9910      2.9910      3.0302      3.1087      3.2303      3.4057      3.6522    
  3.9878      4.4217      4.9442      5.5212      6.0973      6.6086      7.0012      7.2176      7.2176      7.0012    
  6.6085      6.0972      5.5212      4.9442      3.8144      3.6270      3.4946      3.4057      3.3471      3.3088    
  3.2864      3.2789      3.2864      3.3088      3.3470      3.4057      3.4946      3.6270      3.8144      4.0603    
  4.3549      4.6740      4.9825      5.2405      5.4121      5.4723      5.4122      5.2406      4.9825      4.6741    
  4.3549      4.0603      3.6320      3.6270      3.6522      3.6940      3.7385      3.7742      3.7938      3.7939    
  3.7742      3.7385      3.6940      3.6522      3.6270      3.6320      3.6760      3.7594      3.8728      3.9998    
  4.1201      4.2138      4.2650      4.2651      4.2138      4.1201      3.9999      3.8729      3.7594      3.6760    
  3.8144      3.9878      4.1786      4.3632      4.5169      4.6186      4.6541      4.6186      4.5169      4.3632    
  4.1786      3.9878      3.8144      3.6760      3.5808      3.5266      3.5038      3.5002      3.5051      3.5107    
  3.5130      3.5107      3.5051      3.5002      3.5038      3.5266      3.5808      3.6760      4.4217      4.8193    
  5.2145      5.5621      5.8201      5.9573      5.9573      5.8201      5.5621      5.2145      4.8194      4.4217    
  4.0603      3.7594      3.5266      3.3557      3.2341      3.1497      3.0949      3.0675      3.0675      3.0949    
  3.1496      3.2341      3.3557      3.5265      3.7594      4.0603      5.6074      6.2848      6.9138      7.4434    
  7.8028      7.9305      7.8028      7.4434      6.9138      6.2849      5.6074      4.9442      4.3549      3.8728    
  3.5038      3.2342      3.0436      2.9154      2.8403      2.8153      2.8402      2.9154      3.0436      3.2341    
  3.5038      3.8728      4.3549      4.9442      7.5591      8.6843      9.7505      10.589      11.051      11.051    
  10.589      9.7506      8.6843      7.5591      6.4963      5.5212      4.6741      3.9998      3.5002      3.1497    
  2.9154      2.7713      2.7024      2.7025      2.7714      2.9154      3.1496      3.5003      3.9999      4.6740    
  5.5212      6.4963      10.990      12.912      14.561      15.669      16.058      15.669      14.561      12.912    
  10.990      9.0920      7.4425      6.0973      4.9826      4.1201      3.5050      3.0949      2.8403      2.7024    
  2.6588      2.7024      2.8403      3.0949      3.5050      4.1201      4.9826      6.0973      7.4425      9.0920    
  16.791      19.589      21.697      22.824      22.825      21.697      19.589      16.791      13.714      10.806    
  8.4062      6.6085      5.2406      4.2138      3.5106      3.0675      2.8154      2.7025      2.7024      2.8152    
  3.0676      3.5108      4.2138      5.2405      6.6086      8.4064      10.806      13.714      25.220      28.678    
  30.923      31.699      30.923      28.678      25.220      20.980      16.533      12.481      9.2676      7.0011    
  5.4121      4.2651      3.5130      3.0675      2.8402      2.7714      2.8403      3.0675      3.5130      4.2651    
  5.4121      7.0011      9.2676      12.481      16.533      20.980      35.917      39.681      41.670      41.670    
  39.681      35.917      30.795      24.914      19.011      13.826      9.8707      7.2176      5.4723      4.2651    
  3.5107      3.0949      2.9154      2.9154      3.0949      3.5107      4.2650      5.4723      7.2176      9.8707    
  13.826      19.011      24.914      30.795      48.269      51.986      53.281      51.986      48.269      42.581    
  35.560      27.981      20.712      14.577      10.088      7.2176      5.4123      4.2138      3.5050      3.1496    
  3.0437      3.1496      3.5050      4.2138      5.4122      7.2176      10.088      14.577      20.712      27.981    
  35.560      42.581      61.673      64.928      64.928      61.673      55.681      47.760      38.788      29.665    
  21.319      14.577      9.8705      7.0010      5.2407      4.1203      3.5001      3.2339      3.2343      3.5004    
  4.1199      5.2403      7.0013      9.8709      14.577      21.318      29.665      38.789      47.759      55.680    
  75.318      77.430      75.318      69.415      60.783      50.612      39.933      29.665      20.712      13.826    
  9.2676      6.6081      4.9825      4.0003      3.5038      3.3553      3.5038      4.0003      4.9825      6.6081    
  9.2676      13.826      20.712      29.665      39.933      50.612      60.783      69.415      87.703      87.704    
  82.683      73.776      62.612      50.612      38.789      27.981      19.011      12.481      8.4067      6.0968    
  4.6736      3.8733      3.5270      3.5261      3.8724      4.6745      6.0977      8.4059      12.481      19.011    
  27.982      38.788      50.611      62.613      73.777      82.682      96.605      93.600      85.368      73.777    
  60.782      47.759      35.561      24.914      16.533      10.806      7.4433      5.5212      4.3542      3.7594    
  3.5815      3.7594      4.3542      5.5212      7.4433      10.806      16.533      24.914      35.561      47.759    
  60.782      73.777      85.368      93.600      99.874      93.600      82.683      69.416      55.680      42.580    
  30.795      20.981      13.714      9.0915      6.4969      4.9447      4.0597      3.6755      3.6766      4.0608    
  4.9437      6.4958      9.0925      13.715      20.980      30.794      42.581      55.681      69.415      82.682    
  93.601      99.875      82.424      73.140      61.673      49.582      37.897      27.360      18.668      12.336    
  8.3623      6.0934      4.6895      3.8983      3.5556      3.5547      3.8975      4.6903      6.0942      8.3615    
  12.335      18.669      27.361      37.896      49.582      61.674      73.141      82.424      87.703      87.704    
  73.141      63.209      51.986      40.706      30.208      21.185      14.225      9.5550      6.8048      5.1415    
  4.1289      3.6159      3.4628      3.6159      4.1289      5.1415      6.8048      9.5549      14.224      21.185    
  30.208      40.706      51.986      63.209      73.141      80.139      82.682      80.139      61.674      51.987    
  41.670      31.699      22.825      15.669      10.589      7.4432      5.5624      4.3635      3.6938      3.4055    
  3.4060      3.6943      4.3630      5.5619      7.4436      10.589      15.669      22.824      31.700      41.670    
  51.986      61.673      69.416      73.777      73.776      69.415      49.582      40.706      31.699      23.391    
  16.446      11.291      7.9382      5.9028      4.5717      3.7750      3.3739      3.2541      3.3739      3.7750    