unknown system                          
   1.00000000000000     
     2.915684    0.000000    0.000000
     1.457842    2.525057    0.000000
     1.457842    0.841686    2.380646
   Pd
     1
Direct
  0.000000  0.000000  0.000000
 
   28   28   28
 0.11074615468E+03 0.10693212340E+03 0.96607034852E+02 0.82423959645E+02 0.67093479826E+02
 0.52344479406E+02 0.38953850286E+02 0.27393608335E+02 0.18213985199E+02 0.11812879198E+02
 0.79932342426E+01 0.58700374681E+01 0.45905801984E+01 0.39322398647E+01 0.37345983268E+01
 0.39322398647E+01 0.45905801984E+01 0.58700374681E+01 0.79932342426E+01 0.11812879198E+02
 0.18213985199E+02 0.27393608335E+02 0.38953850286E+02 0.52344479406E+02 0.67093479826E+02
 0.82423959645E+02 0.96607034852E+02 0.10693212340E+03 0.10693152337E+03 0.99874122507E+02
 0.87704418837E+02 0.73140935120E+02 0.58363471417E+02 0.44540484211E+02 0.32245674425E+02
 0.22012413996E+02 0.14375109777E+02 0.94650819140E+01 0.67087601995E+01 0.50886010993E+01
 0.41593278790E+01 0.37545186204E+01 0.37557523927E+01 0.41605762269E+01 0.50873901144E+01
 0.67075182650E+01 0.94662964073E+01 0.14376386890E+02 0.22011258073E+02 0.32244429848E+02
 0.44541612631E+02 0.58364647792E+02 0.73139723162E+02 0.87703125864E+02 0.99875168110E+02
 0.10693264444E+03 0.96606146177E+02 0.87703082717E+02 0.75317740977E+02 0.61673994160E+02
 0.48269044676E+02 0.35916091955E+02 0.25219665786E+02 0.16791344918E+02 0.10990364172E+02
 0.75583910365E+01 0.56073994190E+01 0.44224667226E+01 0.38143752004E+01 0.36312516813E+01
 0.38143867922E+01 0.44224794317E+01 0.56074009470E+01 0.75583782116E+01 0.10990344940E+02
 0.16791332621E+02 0.25219665667E+02 0.35916095622E+02 0.48269032220E+02 0.61673950259E+02
 0.75317668268E+02 0.87703003884E+02 0.96606094739E+02 0.99875304156E+02 0.82424364524E+02
 0.73139930204E+02 0.61672853199E+02 0.49582331787E+02 0.37896961692E+02 0.27360296504E+02
 0.18667891635E+02 0.12335798337E+02 0.83623364000E+01 0.60934358677E+01 0.46895060725E+01
 0.38982816085E+01 0.35555617594E+01 0.35547492712E+01 0.38974734961E+01 0.46903283347E+01
 0.60942445492E+01 0.83614844069E+01 0.12334922930E+02 0.18668667824E+02 0.27361129171E+02
 0.37896193257E+02 0.49581531315E+02 0.61673642646E+02 0.73140732147E+02 0.82423573151E+02
 0.87703335088E+02 0.87704130780E+02 0.67094756292E+02 0.58364071454E+02 0.48268656885E+02
 0.37896556814E+02 0.28112767317E+02 0.19693954175E+02 0.13260021026E+02 0.90003468796E+01
 0.64912429599E+01 0.49312675027E+01 0.39874406118E+01 0.35113018389E+01 0.33694140066E+01
 0.35113097678E+01 0.39874511902E+01 0.49312741527E+01 0.64912421022E+01 0.90003409594E+01
 0.13260016591E+02 0.19693957833E+02 0.28112781682E+02 0.37896577676E+02 0.48268678596E+02
 0.58364088222E+02 0.67094765478E+02 0.73140327269E+02 0.75317280477E+02 0.73140323200E+02
 0.52344629679E+02 0.44541234522E+02 0.35916677764E+02 0.27360551109E+02 0.19694104448E+02
 0.13590163861E+02 0.93557666242E+01 0.67541886652E+01 0.51136453101E+01 0.40667826268E+01
 0.34873951170E+01 0.32386613358E+01 0.32389474129E+01 0.34876798217E+01 0.40665037465E+01
 0.51133957034E+01 0.67545245473E+01 0.93560725037E+01 0.13589868759E+02 0.19693830699E+02
 0.27360876574E+02 0.35916971311E+02 0.44540913773E+02 0.52344338473E+02 0.58364238495E+02
 0.61673388041E+02 0.61673063903E+02 0.58363897482E+02 0.38952961611E+02 0.32245146000E+02
 0.25219665786E+02 0.18668224902E+02 0.13260408817E+02 0.93559885093E+01 0.68473832720E+01
 0.52114505961E+01 0.41200488177E+01 0.34750674760E+01 0.31510926866E+01 0.30542856693E+01
 0.31510881911E+01 0.34750647457E+01 0.41200540559E+01 0.52114642473E+01 0.68473976513E+01
 0.93559940046E+01 0.13260402656E+02 0.18668213395E+02 0.25219666004E+02 0.32245168850E+02
 0.38953006670E+02 0.44540992434E+02 0.48269066387E+02 0.49582007805E+02 0.48269032220E+02
 0.44540940982E+02 0.27393623267E+02 0.22011799027E+02 0.16790593903E+02 0.12335408390E+02
 0.90003618118E+01 0.67543240062E+01 0.52115072758E+01 0.41389742238E+01 0.34694755361E+01
 0.30992924612E+01 0.29388591134E+01 0.29389088138E+01 0.30993399836E+01 0.34694093762E+01
 0.41388835754E+01 0.52115267019E+01 0.67543926384E+01 0.90003369393E+01 0.12335313676E+02
 0.16790565055E+02 0.22011866628E+02 0.27393700110E+02 0.32245082306E+02 0.35916835970E+02
 0.37896592608E+02 0.37896583203E+02 0.35916816772E+02 0.32245044818E+02 0.18214938533E+02
 0.14375709814E+02 0.10990299514E+02 0.83619315217E+01 0.64909198277E+01 0.51134950369E+01
 0.41199841590E+01 0.34694606039E+01 0.30821211549E+01 0.28827552841E+01 0.28219333722E+01
 0.28827446399E+01 0.30821065101E+01 0.34694505540E+01 0.41199836157E+01 0.51135010713E+01
 0.64909264622E+01 0.83619291709E+01 0.10990289210E+02 0.14375693973E+02 0.18214924475E+02
 0.22011851696E+02 0.25219601345E+02 0.27360726301E+02 0.28112458550E+02 0.27360724293E+02
 0.25219601008E+02 0.22011858110E+02 0.11812927981E+02 0.94657307342E+01 0.75590783362E+01
 0.60937919629E+01 0.49313162857E+01 0.40666811365E+01 0.34749470811E+01 0.30992586104E+01
 0.28828040671E+01 0.27847137688E+01 0.27846007676E+01 0.28826909826E+01 0.30993800818E+01
 0.34750876242E+01 0.40665948886E+01 0.49311993073E+01 0.60938988127E+01 0.75592287912E+01
 0.94656656330E+01 0.11812783475E+02 0.14375742756E+02 0.16790598906E+02 0.18668236224E+02
 0.19693932189E+02 0.19694006616E+02 0.18668311728E+02 0.16790547755E+02 0.14375738069E+02
 0.79923455672E+01 0.67082106192E+01 0.56073994190E+01 0.46898604938E+01 0.39878284027E+01
 0.34875958472E+01 0.31510926866E+01 0.29388235887E+01 0.28219980309E+01 0.27847000076E+01
 0.28220047880E+01 0.29388320425E+01 0.31510978924E+01 0.34875948943E+01 0.39878267674E+01
 0.46898624256E+01 0.56074115341E+01 0.67082328608E+01 0.79923680093E+01 0.94656639591E+01
 0.10990353869E+02 0.12335379065E+02 0.13260402656E+02 0.13589968576E+02 0.13260404382E+02
 0.12335378265E+02 0.10990344940E+02 0.94656459132E+01 0.58700191344E+01 0.50880193958E+01
 0.44217489736E+01 0.38978583965E+01 0.35112835052E+01 0.32388299427E+01 0.30543756149E+01
 0.29388755479E+01 0.28827263062E+01 0.28827580992E+01 0.29389008331E+01 0.30543276550E+01
 0.32387870372E+01 0.35113142409E+01 0.38978833947E+01 0.44216971453E+01 0.50879802422E+01
 0.58700888093E+01 0.67082007376E+01 0.75591616745E+01 0.83619108372E+01 0.90003702052E+01
 0.93559407264E+01 0.93559038968E+01 0.90003226257E+01 0.83619076189E+01 0.75591326280E+01
 0.67080999685E+01 0.45914612898E+01 0.41599279162E+01 0.38143827843E+01 0.35551568811E+01
 0.33690186317E+01 0.32387971397E+01 0.31510957751E+01 0.30993250514E+01 0.30820342674E+01
 0.30993312988E+01 0.31511054763E+01 0.32388053709E+01 0.33690235020E+01 0.35551572949E+01
 0.38143814719E+01 0.41599298971E+01 0.45914669819E+01 0.50879985759E+01 0.56074191180E+01
 0.60938500297E+01 0.64908542195E+01 0.67543777062E+01 0.68474052352E+01 0.67543742741E+01
 0.64908467273E+01 0.60938396709E+01 0.56074085310E+01 0.50879901516E+01 0.39322398969E+01
 0.37551186898E+01 0.36319877318E+01 0.35551541172E+01 0.35113098000E+01 0.34875295807E+01
 0.34749931016E+01 0.34694242762E+01 0.34694505862E+01 0.34750388734E+01 0.34875444052E+01
 0.35112958750E+01 0.35551573271E+01 0.36320218418E+01 0.37551413187E+01 0.39322171634E+01
 0.41599299293E+01 0.44217155112E+01 0.46899128503E+01 0.49312480581E+01 0.51135011035E+01
 0.52115118019E+01 0.52115358270E+01 0.51135459444E+01 0.49312741849E+01 0.46899234887E+01
 0.44217433168E+01 0.41599761575E+01 0.37337096514E+01 0.37551523555E+01 0.38143867922E+01
 0.38978783743E+01 0.39878389811E+01 0.40666540197E+01 0.41200540559E+01 0.41388985076E+01
 0.41200482744E+01 0.40666436716E+01 0.39878267674E+01 0.38978650610E+01 0.38143738880E+01
 0.37551413509E+01 0.37336995118E+01 0.37551413509E+01 0.38143738880E+01 0.38978650610E+01
 0.39878267674E+01 0.40666436716E+01 0.41200482744E+01 0.41388985076E+01 0.41200540559E+01
 0.40666540197E+01 0.39878389811E+01 0.38978783743E+01 0.38143867922E+01 0.37551523555E+01
 0.39322398969E+01 0.41599761575E+01 0.44217433168E+01 0.46899234887E+01 0.49312741849E+01
 0.51135459444E+01 0.52115358270E+01 0.52115118019E+01 0.51135011035E+01 0.49312480581E+01
 0.46899128503E+01 0.44217155112E+01 0.41599299293E+01 0.39322171634E+01 0.37551413187E+01
 0.36320218418E+01 0.35551573271E+01 0.35112958750E+01 0.34875444052E+01 0.34750388734E+01
 0.34694505862E+01 0.34694242762E+01 0.34749931016E+01 0.34875295807E+01 0.35113098000E+01
 0.35551541172E+01 0.36319877318E+01 0.37551186898E+01 0.45914612898E+01 0.50879901516E+01
 0.56074085310E+01 0.60938396709E+01 0.64908467273E+01 0.67543742741E+01 0.68474052352E+01
 0.67543777062E+01 0.64908542195E+01 0.60938500297E+01 0.56074191180E+01 0.50879985759E+01
 0.45914669819E+01 0.41599298971E+01 0.38143814719E+01 0.35551572949E+01 0.33690235020E+01
 0.32388053709E+01 0.31511054763E+01 0.30993312988E+01 0.30820342674E+01 0.30993250514E+01
 0.31510957751E+01 0.32387971397E+01 0.33690186317E+01 0.35551568811E+01 0.38143827843E+01
 0.41599279162E+01 0.58700191344E+01 0.67080999685E+01 0.75591326280E+01 0.83619076189E+01
 0.90003226257E+01 0.93559038968E+01 0.93559407264E+01 0.90003702052E+01 0.83619108372E+01
 0.75591616745E+01 0.67082007376E+01 0.58700888093E+01 0.50879802422E+01 0.44216971453E+01
 0.38978833947E+01 0.35113142409E+01 0.32387870372E+01 0.30543276550E+01 0.29389008331E+01
 0.28827580992E+01 0.28827263062E+01 0.29388755479E+01 0.30543756149E+01 0.32388299427E+01
 0.35112835052E+01 0.38978583965E+01 0.44217489736E+01 0.50880193958E+01 0.79923455672E+01
 0.94656459132E+01 0.10990344940E+02 0.12335378265E+02 0.13260404382E+02 0.13589968576E+02
 0.13260402656E+02 0.12335379065E+02 0.10990353869E+02 0.94656639591E+01 0.79923680093E+01
 0.67082328608E+01 0.56074115341E+01 0.46898624256E+01 0.39878267674E+01 0.34875948943E+01
 0.31510978924E+01 0.29388320425E+01 0.28220047880E+01 0.27847000076E+01 0.28219980309E+01
 0.29388235887E+01 0.31510926866E+01 0.34875958472E+01 0.39878284027E+01 0.46898604938E+01
 0.56073994190E+01 0.67082106192E+01 0.11812927981E+02 0.14375738069E+02 0.16790547755E+02
 0.18668311728E+02 0.19694006616E+02 0.19693932189E+02 0.18668236224E+02 0.16790598906E+02
 0.14375742756E+02 0.11812783475E+02 0.94656656330E+01 0.75592287912E+01 0.60938988127E+01
 0.49311993073E+01 0.40665948886E+01 0.34750876242E+01 0.30993800818E+01 0.28826909826E+01
 0.27846007676E+01 0.27847137688E+01 0.28828040671E+01 0.30992586104E+01 0.34749470811E+01
 0.40666811365E+01 0.49313162857E+01 0.60937919629E+01 0.75590783362E+01 0.94657307342E+01
 0.18214938533E+02 0.22011858110E+02 0.25219601008E+02 0.27360724293E+02 0.28112458550E+02
 0.27360726301E+02 0.25219601345E+02 0.22011851696E+02 0.18214924475E+02 0.14375693973E+02
 0.10990289210E+02 0.83619291709E+01 0.64909264622E+01 0.51135010713E+01 0.41199836157E+01
 0.34694505540E+01 0.30821065101E+01 0.28827446399E+01 0.28219333722E+01 0.28827552841E+01
 0.30821211549E+01 0.34694606039E+01 0.41199841590E+01 0.51134950369E+01 0.64909198277E+01
 0.83619315217E+01 0.10990299514E+02 0.14375709814E+02 0.27393623267E+02 0.32245044818E+02
 0.35916816772E+02 0.37896583203E+02 0.37896592608E+02 0.35916835970E+02 0.32245082306E+02
 0.27393700110E+02 0.22011866628E+02 0.16790565055E+02 0.12335313676E+02 0.90003369393E+01
 0.67543926384E+01 0.52115267019E+01 0.41388835754E+01 0.34694093762E+01 0.30993399836E+01
 0.29389088138E+01 0.29388591134E+01 0.30992924612E+01 0.34694755361E+01 0.41389742238E+01
 0.52115072758E+01 0.67543240062E+01 0.90003618118E+01 0.12335408390E+02 0.16790593903E+02
 0.22011799027E+02 0.38952961611E+02 0.44540940982E+02 0.48269032220E+02 0.49582007805E+02
 0.48269066387E+02 0.44540992434E+02 0.38953006670E+02 0.32245168850E+02 0.25219666004E+02
 0.18668213395E+02 0.13260402656E+02 0.93559940046E+01 0.68473976513E+01 0.52114642473E+01
 0.41200540559E+01 0.34750647457E+01 0.31510881911E+01 0.30542856693E+01 0.31510926866E+01
 0.34750674760E+01 0.41200488177E+01 0.52114505961E+01 0.68473832720E+01 0.93559885093E+01
 0.13260408817E+02 0.18668224902E+02 0.25219665786E+02 0.32245146000E+02 0.52344629679E+02
 0.58363897482E+02 0.61673063903E+02 0.61673388041E+02 0.58364238495E+02 0.52344338473E+02
 0.44540913773E+02 0.35916971311E+02 0.27360876574E+02 0.19693830699E+02 0.13589868759E+02
 0.93560725037E+01 0.67545245473E+01 0.51133957034E+01 0.40665037465E+01 0.34876798217E+01
 0.32389474129E+01 0.32386613358E+01 0.34873951170E+01 0.40667826268E+01 0.51136453101E+01
 0.67541886652E+01 0.93557666242E+01 0.13590163861E+02 0.19694104448E+02 0.27360551109E+02
 0.35916677764E+02 0.44541234522E+02 0.67094756292E+02 0.73140323200E+02 0.75317280477E+02
 0.73140327269E+02 0.67094765478E+02 0.58364088222E+02 0.48268678596E+02 0.37896577676E+02
 0.28112781682E+02 0.19693957833E+02 0.13260016591E+02 0.90003409594E+01 0.64912421022E+01
 0.49312741527E+01 0.39874511902E+01 0.35113097678E+01 0.33694140066E+01 0.35113018389E+01
 0.39874406118E+01 0.49312675027E+01 0.64912429599E+01 0.90003468796E+01 0.13260021026E+02
 0.19693954175E+02 0.28112767317E+02 0.37896556814E+02 0.48268656885E+02 0.58364071454E+02
 0.82424364524E+02 0.87704130780E+02 0.87703335088E+02 0.82423573151E+02 0.73140732147E+02
 0.61673642646E+02 0.49581531315E+02 0.37896193257E+02 0.27361129171E+02 0.18668667824E+02
 0.12334922930E+02 0.83614844069E+01 0.60942445492E+01 0.46903283347E+01 0.38974734961E+01
 0.35547492712E+01 0.35555617594E+01 0.38982816085E+01 0.46895060725E+01 0.60934358677E+01
 0.83623364000E+01 0.12335798337E+02 0.18667891635E+02 0.27360296504E+02 0.37896961692E+02
 0.49582331787E+02 0.61672853199E+02 0.73139930204E+02 0.96606146177E+02 0.99875304156E+02
 0.96606094739E+02 0.87703003884E+02 0.75317668268E+02 0.61673950259E+02 0.48269032220E+02
 0.35916095622E+02 0.25219665667E+02 0.16791332621E+02 0.10990344940E+02 0.75583782116E+01
 0.56074009470E+01 0.44224794317E+01 0.38143867922E+01 0.36312516813E+01 0.38143752004E+01
 0.44224667226E+01 0.56073994190E+01 0.75583910365E+01 0.10990364172E+02 0.16791344918E+02
 0.25219665786E+02 0.35916091955E+02 0.48269044676E+02 0.61673994160E+02 0.75317740977E+02
 0.87703082717E+02 0.10693152337E+03 0.10693264444E+03 0.99875168110E+02 0.87703125864E+02
 0.73139723162E+02 0.58364647792E+02 0.44541612631E+02 0.32244429848E+02 0.22011258073E+02
 0.14376386890E+02 0.94662964073E+01 0.67075182650E+01 0.50873901144E+01 0.41605762269E+01
 0.37557523927E+01 0.37545186204E+01 0.41593278790E+01 0.50886010993E+01 0.67087601995E+01
 0.94650819140E+01 0.14375109777E+02 0.22012413996E+02 0.32245674425E+02 0.44540484211E+02
 0.58363471417E+02 0.73140935120E+02 0.87704418837E+02 0.99874122507E+02 0.10693152337E+03
 0.99874122507E+02 0.87704418837E+02 0.73140935120E+02 0.58363471417E+02 0.44540484211E+02
 0.32245674425E+02 0.22012413996E+02 0.14375109777E+02 0.94650819140E+01 0.67087601995E+01
 0.50886010993E+01 0.41593278790E+01 0.37545186204E+01 0.37557523927E+01 0.41605762269E+01
 0.50873901144E+01 0.67075182650E+01 0.94662964073E+01 0.14376386890E+02 0.22011258073E+02
 0.32244429848E+02 0.44541612631E+02 0.58364647792E+02 0.73139723162E+02 0.87703125864E+02
 0.99875168110E+02 0.10693264444E+03 0.99874726587E+02 0.90455014154E+02 0.77429906731E+02
 0.63210047294E+02 0.49380397782E+02 0.36735958814E+02 0.25818360175E+02 0.17197423374E+02
 0.11233721533E+02 0.76918518187E+01 0.56928159186E+01 0.44804869930E+01 0.38567719400E+01
 0.36687292112E+01 0.38567967854E+01 0.44804953022E+01 0.56927995513E+01 0.76918618943E+01
 0.11233790444E+02 0.17197499258E+02 0.25818363678E+02 0.36735894903E+02 0.49380336472E+02
 0.63210002767E+02 0.77429798952E+02 0.90454809417E+02 0.99874545452E+02 0.10334356934E+03
 0.87704285247E+02 0.77429444390E+02 0.64927805998E+02 0.51986800482E+02 0.39681043410E+02
 0.28677218027E+02 0.19588338413E+02 0.12912878844E+02 0.86847630956E+01 0.62843745484E+01
 0.48188788126E+01 0.39882658991E+01 0.36274518034E+01 0.36265190565E+01 0.39873332780E+01
 0.48198139021E+01 0.62853138950E+01 0.86838376193E+01 0.12911947751E+02 0.19589271171E+02
 0.28678157578E+02 0.39680116804E+02 0.51985843111E+02 0.64928662258E+02 0.77430268226E+02
 0.87703257489E+02 0.93599708530E+02 0.93600678660E+02 0.73140822092E+02 0.63209261989E+02
 0.51985848168E+02 0.40705756944E+02 0.30207607421E+02 0.21184539694E+02 0.14224516660E+02
 0.95549708073E+01 0.68048175220E+01 0.51414873542E+01 0.41288588349E+01 0.36158904161E+01
 0.34628257441E+01 0.36159071642E+01 0.41288735400E+01 0.51414788828E+01 0.68047826042E+01
 0.95549298415E+01 0.14224495250E+02 0.21184548672E+02 0.30207634828E+02 0.40705786079E+02
 0.51985868098E+02 0.63209270875E+02 0.73140824092E+02 0.80139071633E+02 0.82682009242E+02
 0.80139072174E+02 0.58364290687E+02 0.49380614958E+02 0.39680358809E+02 0.30206900811E+02
 0.21744159233E+02 0.14944116067E+02 0.10154228262E+02 0.72012750235E+01 0.54067535470E+01
 0.42601884938E+01 0.36220310927E+01 0.33476894611E+01 0.33481326790E+01 0.36224767046E+01
 0.42597470130E+01 0.54063008693E+01 0.72016986721E+01 0.10154662042E+02 0.14943683911E+02
 0.21743738301E+02 0.30207370802E+02 0.39680842948E+02 0.49380224295E+02 0.58363883590E+02
 0.65455197762E+02 0.69415982816E+02 0.69415542580E+02 0.65454747261E+02 0.44541087578E+02
 0.36736894254E+02 0.28677680739E+02 0.21184390191E+02 0.14943899583E+02 0.10368492946E+02
 0.74192537911E+01 0.55803899383E+01 0.43597176685E+01 0.36343030188E+01 0.32698155313E+01
 0.31609964927E+01 0.32698065700E+01 0.36342935493E+01 0.43597181395E+01 0.55804021125E+01
 0.74192671129E+01 0.10368502674E+02 0.14943914750E+02 0.21184421038E+02 0.28677716657E+02
 0.36736916696E+02 0.44541094813E+02 0.51173511102E+02 0.55680657999E+02 0.57285164680E+02
 0.55680652283E+02 0.51173506334E+02 0.32245055776E+02 0.25818384138E+02 0.19588823585E+02
 0.14224983221E+02 0.10154428988E+02 0.74192784352E+01 0.56411786398E+01 0.44136199208E+01
 0.36438207259E+01 0.32196229330E+01 0.30367925669E+01 0.30367622741E+01 0.32195953197E+01
 0.36438509623E+01 0.44136307283E+01 0.56411195695E+01 0.74192418433E+01 0.10154476985E+02
 0.14225020060E+02 0.19588788136E+02 0.25818381483E+02 0.32245144102E+02 0.38094164237E+02
 0.42580732597E+02 0.45027107259E+02 0.45027167114E+02 0.42580800590E+02 0.38094111415E+02
 0.22011855362E+02 0.17196640812E+02 0.12912374061E+02 0.95549698927E+01 0.72015362227E+01
 0.55805429637E+01 0.44136015471E+01 0.36474744747E+01 0.31945963939E+01 0.29643686448E+01
 0.28948245837E+01 0.29643744687E+01 0.31945897344E+01 0.36474467020E+01 0.44135663642E+01
 0.55805178625E+01 0.72015159210E+01 0.95549445631E+01 0.12912361848E+02 0.17196669912E+02
 0.22011916025E+02 0.26763967492E+02 0.30794632331E+02 0.33502193952E+02 0.34457124954E+02
 0.33502243665E+02 0.30794663303E+02 0.26763934796E+02 0.14375757707E+02 0.11233770866E+02
 0.86842528701E+01 0.68042818817E+01 0.54065822065E+01 0.43597663506E+01 0.36437947285E+01
 0.31945064257E+01 0.29404886346E+01 0.28274707852E+01 0.28273531595E+01 0.29403583804E+01
 0.31945990152E+01 0.36439126013E+01 0.43596684294E+01 0.54064470746E+01 0.68043479665E+01
 0.86843696685E+01 0.11233724197E+02 0.14375674260E+02 0.17783337030E+02 0.20980510002E+02
 0.23465155044E+02 0.24824113945E+02 0.24824220231E+02 0.23465289409E+02 0.20980476443E+02
 0.17783286012E+02 0.94656836645E+01 0.76926996302E+01 0.62848411088E+01 0.51414282551E+01
 0.42599710214E+01 0.36342153900E+01 0.32196020358E+01 0.29643059858E+01 0.28274210246E+01
 0.27844618280E+01 0.28274125341E+01 0.29643090157E+01 0.32196224916E+01 0.36342316383E+01
 0.42599665319E+01 0.51414209928E+01 0.62848672811E+01 0.76927479607E+01 0.94657055166E+01
 0.11551293187E+02 0.13714294568E+02 0.15617507001E+02 0.16923841011E+02 0.17388904716E+02
 0.16923864061E+02 0.15617563675E+02 0.13714367255E+02 0.11551330745E+02 0.67081337401E+01
 0.56928448235E+01 0.48193720235E+01 0.41293211949E+01 0.36222248855E+01 0.32698455543E+01
 0.30368006055E+01 0.28948385436E+01 0.28273718658E+01 0.28274384403E+01 0.28949129947E+01
 0.30367500960E+01 0.32697817102E+01 0.36222766425E+01 0.41293852582E+01 0.48193216403E+01
 0.56927895334E+01 0.67082045287E+01 0.78492147924E+01 0.90919672619E+01 0.10297872381E+02
 0.11265548910E+02 0.11805724874E+02 0.11805688774E+02 0.11265523826E+02 0.10297924240E+02
 0.90919820153E+01 0.78491198555E+01 0.50879841848E+01 0.44797022976E+01 0.39878178623E+01
 0.36158902126E+01 0.33478927391E+01 0.31611478140E+01 0.30368008856E+01 0.29643751798E+01
 0.29403901452E+01 0.29643693887E+01 0.30367925579E+01 0.31611434385E+01 0.33478940592E+01
 0.36158846418E+01 0.39877958911E+01 0.44796743933E+01 0.50879810164E+01 0.57803217545E+01
 0.64963958417E+01 0.71794947403E+01 0.77703387217E+01 0.81785970549E+01 0.83250324300E+01
 0.81785938883E+01 0.77703117726E+01 0.71794327031E+01 0.64963216980E+01 0.57802769687E+01
 0.41599256338E+01 0.38567703305E+01 0.36269893898E+01 0.34623386857E+01 0.33479111631E+01
 0.32698043069E+01 0.32196171438E+01 0.31945483931E+01 0.31945488397E+01 0.32196210020E+01
 0.32698101185E+01 0.33479102486E+01 0.34623306579E+01 0.36269840184E+01 0.38567729131E+01
 0.41599282129E+01 0.45304403771E+01 0.49442054957E+01 0.53610707218E+01 0.57323189176E+01
 0.60107394815E+01 0.61598068146E+01 0.61598101971E+01 0.60107397242E+01 0.57323069773E+01
 0.53610579470E+01 0.49442040291E+01 0.45304435464E+01 0.37551189612E+01 0.36695158433E+01
 0.36269846821E+01 0.36159071898E+01 0.36222582127E+01 0.36341447411E+01 0.36438288173E+01
 0.36474428107E+01 0.36438616868E+01 0.36341704589E+01 0.36222492016E+01 0.36158822904E+01
 0.36269836404E+01 0.36695422092E+01 0.37551366650E+01 0.38877136542E+01 0.40602564864E+01
 0.42550280377E+01 0.44470700121E+01 0.46093129230E+01 0.47177540222E+01 0.47558812315E+01
 0.47177887743E+01 0.46093533511E+01 0.44470995853E+01 0.42550569616E+01 0.40602898003E+01
 0.38877288452E+01 0.37551527939E+01 0.38567965036E+01 0.39877980011E+01 0.41293638705E+01
 0.42599684868E+01 0.43597195596E+01 0.44136102792E+01 0.44136077382E+01 0.43597141603E+01
 0.42599635432E+01 0.41293567704E+01 0.39877806027E+01 0.38567708034E+01 0.37551345008E+01
 0.36943989968E+01 0.36760494851E+01 0.36921331464E+01 0.37289050951E+01 0.37714315152E+01
 0.38070537224E+01 0.38270456480E+01 0.38270454079E+01 0.38070600536E+01 0.37714497901E+01
 0.37289242914E+01 0.36921377571E+01 0.36760418609E+01 0.36943992311E+01 0.41599750170E+01
 0.44797101182E+01 0.48193497037E+01 0.51414788422E+01 0.54065203750E+01 0.55805538033E+01
 0.56411427087E+01 0.55805187365E+01 0.54064943379E+01 0.51414808508E+01 0.48193482077E+01
 0.44796745561E+01 0.41599273387E+01 0.38877148117E+01 0.36760481900E+01 0.35235868580E+01
 0.34194943925E+01 0.33503023478E+01 0.33054741558E+01 0.32795395046E+01 0.32709197386E+01
 0.32795033183E+01 0.33054397639E+01 0.33502912877E+01 0.34194850375E+01 0.35235568415E+01
 0.36760210486E+01 0.38877281389E+01 0.50879817115E+01 0.56927921918E+01 0.62848580053E+01
 0.68043015969E+01 0.72014709986E+01 0.74192594846E+01 0.74192709756E+01 0.72014813441E+01
 0.68042916333E+01 0.62848595876E+01 0.56928242042E+01 0.50880034484E+01 0.45304342194E+01
 0.40602505275E+01 0.36921408823E+01 0.34195008374E+01 0.32247393925E+01 0.30899533105E+01
 0.30034339048E+01 0.29605151130E+01 0.29604933796E+01 0.30034041715E+01 0.30899552577E+01
 0.32247435411E+01 0.34194750300E+01 0.36921188051E+01 0.40602640686E+01 0.45304497040E+01
 0.67081173543E+01 0.76926149499E+01 0.86843044257E+01 0.95549635541E+01 0.10154442492E+02
 0.10368320289E+02 0.10154456215E+02 0.95549749857E+01 0.86843183738E+01 0.76926532049E+01
 0.67081775642E+01 0.57803525677E+01 0.49442041487E+01 0.42549944613E+01 0.37289076319E+01
 0.33503337357E+01 0.30899576284E+01 0.29205301952E+01 0.28243375396E+01 0.27930245250E+01
 0.28243588931E+01 0.29205513838E+01 0.30899606566E+01 0.33503282521E+01 0.37289166564E+01
 0.42550154710E+01 0.49442063137E+01 0.57803110886E+01 0.94657346422E+01 0.11233747783E+02
 0.12912373014E+02 0.14225026782E+02 0.14943944069E+02 0.14943874287E+02 0.14224960150E+02
 0.12912444404E+02 0.11233809041E+02 0.94656612558E+01 0.78491468438E+01 0.64964208090E+01
 0.53611065199E+01 0.44470259533E+01 0.37713920544E+01 0.33055156028E+01 0.30034634405E+01
 0.28242924193E+01 0.27411099693E+01 0.27412009367E+01 0.28243864725E+01 0.30033735623E+01
 0.33054170620E+01 0.37714759245E+01 0.44471297547E+01 0.53610300780E+01 0.64963045695E+01
 0.78491878041E+01 0.14375857040E+02 0.17196709996E+02 0.19588732679E+02 0.21184549991E+02
 0.21744030000E+02 0.21184569874E+02 0.19588737759E+02 0.17196672146E+02 0.14375793495E+02
 0.11551350430E+02 0.90919208576E+01 0.71794962625E+01 0.57323890784E+01 0.46093102423E+01
 0.38069788332E+01 0.32795408639E+01 0.29605795702E+01 0.27929886199E+01 0.27410851853E+01
 0.27929789383E+01 0.29605607620E+01 0.32795256759E+01 0.38069779120E+01 0.46093134054E+01
 0.57323707627E+01 0.71794632449E+01 0.90919129289E+01 0.11551389859E+02 0.22011900656E+02
 0.25818403114E+02 0.28677647933E+02 0.30207104023E+02 0.30207194115E+02 0.28677756815E+02
 0.25818358393E+02 0.22011832664E+02 0.17783331683E+02 0.13714334281E+02 0.10297854936E+02
 0.77703128738E+01 0.60107843102E+01 0.47177945330E+01 0.38270000628E+01 0.32708773149E+01
 0.29605443659E+01 0.28244008614E+01 0.28243028897E+01 0.29604467225E+01 0.32709853137E+01
 0.38271221436E+01 0.47177061083E+01 0.60106472720E+01 0.77703624730E+01 0.10297973796E+02
 0.13714324532E+02 0.17783291359E+02 0.32245031031E+02 0.36736684654E+02 0.39680580190E+02
 0.40705781591E+02 0.39680625074E+02 0.36736771006E+02 0.32245121014E+02 0.26763961481E+02
 0.20980461568E+02 0.15617448940E+02 0.11265519161E+02 0.81785914935E+01 0.61598088322E+01
 0.47558843502E+01 0.38270442336E+01 0.32794971823E+01 0.30034113323E+01 0.29205880789E+01
 0.30034147309E+01 0.32795233110E+01 0.38270823454E+01 0.47558899317E+01 0.61597656894E+01
 0.81785539473E+01 0.11265547135E+02 0.15617531192E+02 0.20980516555E+02 0.26763931509E+02
 0.44541082271E+02 0.49380265722E+02 0.51986237197E+02 0.51986428260E+02 0.49380516112E+02
 0.44541025960E+02 0.38094073150E+02 0.30794744691E+02 0.23465273459E+02 0.16923769634E+02
 0.11805625748E+02 0.83250867349E+01 0.61598796722E+01 0.47177181446E+01 0.38069894158E+01
 0.33055096495E+01 0.30900174248E+01 0.30898885433E+01 0.33053858851E+01 0.38071218151E+01
 0.47178216156E+01 0.61596969642E+01 0.83249219447E+01 0.11805766273E+02 0.16923936301E+02
 0.23465179482E+02 0.30794644181E+02 0.38094202502E+02 0.58364295171E+02 0.63209215690E+02
 0.64927947647E+02 0.63209271465E+02 0.58364353371E+02 0.51173662667E+02 0.42580505897E+02
 0.33502195457E+02 0.24824412470E+02 0.17388966651E+02 0.11805467323E+02 0.81785946820E+01
 0.60109887955E+01 0.46093556029E+01 0.37712004644E+01 0.33502919186E+01 0.32249860700E+01
 0.33502963950E+01 0.37711854447E+01 0.46093126769E+01 0.60109390782E+01 0.81785597783E+01
 0.11805447272E+02 0.17388960758E+02 0.24824431306E+02 0.33502241561E+02 0.42580546304E+02
 0.51173653805E+02 0.73140624807E+02 0.77430098603E+02 0.77429500838E+02 0.73140033949E+02
 0.65455280136E+02 0.55680959458E+02 0.45026827169E+02 0.34456782107E+02 0.24824473945E+02
 0.16924166284E+02 0.11265251294E+02 0.77700276241E+01 0.57326108667E+01 0.44474023844E+01
 0.37286240479E+01 0.34191849906E+01 0.34197850771E+01 0.37292201837E+01 0.44467908570E+01
 0.57319989655E+01 0.77706215338E+01 0.11265848210E+02 0.16923565121E+02 0.24823881652E+02
 0.34457399184E+02 0.45027438013E+02 0.55680352436E+02 0.65454664887E+02 0.87703727295E+02
 0.90456197726E+02 0.87703721609E+02 0.80138468382E+02 0.69415763501E+02 0.57285617549E+02
 0.45027145973E+02 0.33501639705E+02 0.23465239386E+02 0.15618104173E+02 0.10297897611E+02
 0.71788309587E+01 0.53610593894E+01 0.42556586387E+01 0.36921396842E+01 0.35229551493E+01
 0.36921261041E+01 0.42556507245E+01 0.53610737916E+01 0.71788649668E+01 0.10297934181E+02
 0.15618129750E+02 0.23465250539E+02 0.33501639779E+02 0.45027137383E+02 0.57285607289E+02
 0.69415758493E+02 0.80138471244E+02 0.99874037290E+02 0.99875074566E+02 0.93600703189E+02
 0.82681968708E+02 0.69415231697E+02 0.55681181475E+02 0.42581310076E+02 0.30794176180E+02
 0.20979992902E+02 0.13714893721E+02 0.90924834631E+01 0.64957776224E+01 0.49436730812E+01
 0.40608177897E+01 0.36765717965E+01 0.36754927482E+01 0.40597265969E+01 0.49447335086E+01
 0.64968739659E+01 0.90914583330E+01 0.13713840410E+02 0.20981047377E+02 0.30795244754E+02
 0.42580266705E+02 0.55680124340E+02 0.69416287639E+02 0.82683046812E+02 0.93599684001E+02
 0.10693120499E+03 0.10334278093E+03 0.93601050083E+02 0.80139073211E+02 0.65454129122E+02
 0.51173654251E+02 0.38094968931E+02 0.26763936747E+02 0.17782497705E+02 0.11551389577E+02
 0.78499823177E+01 0.57802782088E+01 0.45296067751E+01 0.38877292161E+01 0.36952343150E+01
 0.38877292161E+01 0.45296067751E+01 0.57802782088E+01 0.78499823177E+01 0.11551389577E+02
 0.17782497705E+02 0.26763936747E+02 0.38094968931E+02 0.51173654251E+02 0.65454129122E+02
 0.80139073211E+02 0.93601050083E+02 0.10334278093E+03 0.96606146177E+02 0.87703082717E+02
 0.75317740977E+02 0.61673994160E+02 0.48269044676E+02 0.35916091955E+02 0.25219665786E+02
 0.16791344918E+02 0.10990364172E+02 0.75583910365E+01 0.56073994190E+01 0.44224667226E+01
 0.38143752004E+01 0.36312516813E+01 0.38143867922E+01 0.44224794317E+01 0.56074009470E+01
 0.75583782116E+01 0.10990344940E+02 0.16791332621E+02 0.25219665667E+02 0.35916095622E+02
 0.48269032220E+02 0.61673950259E+02 0.75317668268E+02 0.87703003884E+02 0.96606094739E+02
 0.99875304156E+02 0.87704285247E+02 0.77429444390E+02 0.64927805998E+02 0.51986800482E+02
 0.39681043410E+02 0.28677218027E+02 0.19588338413E+02 0.12912878844E+02 0.86847630956E+01
 0.62843745484E+01 0.48188788126E+01 0.39882658991E+01 0.36274518034E+01 0.36265190565E+01
 0.39873332780E+01 0.48198139021E+01 0.62853138950E+01 0.86838376193E+01 0.12911947751E+02
 0.19589271171E+02 0.28678157578E+02 0.39680116804E+02 0.51985843111E+02 0.64928662258E+02
 0.77430268226E+02 0.87703257489E+02 0.93599708530E+02 0.93600678660E+02 0.75318267032E+02
 0.64928271160E+02 0.53280829683E+02 0.41670033902E+02 0.30923455443E+02 0.21697368476E+02