   1   1   0   0
  0.1752695E+02  0.2915684E-09  0.2915684E-09  0.2915684E-09  0.5000000E-15
  1.000000000000000E-004
  CAR 
 unknown system                          
     30.50861483     -0.62695073  301      7.15649997      1.00000000
     -0.627  0.0000E+00  0.0000E+00
     -0.523  0.0000E+00  0.0000E+00
     -0.419  0.0000E+00  0.0000E+00
     -0.316 -0.6553E-33 -0.6801E-34
     -0.212 -0.3003E-29 -0.3117E-30
     -0.108 -0.7995E-26 -0.8301E-27
     -0.004 -0.1236E-22 -0.1284E-23
      0.100 -0.1109E-19 -0.1152E-20
      0.203 -0.5624E-17 -0.5848E-18
      0.307 -0.1673E-14 -0.1743E-15
      0.411 -0.2883E-12 -0.3010E-13
      0.515 -0.2851E-10 -0.2989E-11
      0.618 -0.1608E-08 -0.1699E-09
      0.722 -0.5117E-07 -0.5481E-08
      0.826 -0.9015E-06 -0.9904E-07
      0.930 -0.8438E-05 -0.9748E-06
      1.034 -0.3759E-04 -0.4876E-05
      1.137 -0.4355E-04 -0.9395E-05
      1.241  0.2039E-03  0.1177E-04
      1.345  0.7158E-03  0.8605E-04
      1.449  0.8989E-03  0.1793E-03
      1.553  0.1103E-02  0.2938E-03
      1.656  0.2290E-02  0.5314E-03
      1.760  0.2981E-02  0.8408E-03
      1.864  0.2437E-02  0.1094E-02
      1.968  0.2588E-02  0.1362E-02
      2.071  0.2890E-02  0.1662E-02
      2.175  0.2861E-02  0.1959E-02
      2.279  0.3614E-02  0.2334E-02
      2.383  0.4192E-02  0.2769E-02
      2.487  0.5339E-02  0.3323E-02
      2.590  0.6984E-02  0.4048E-02
      2.694  0.5926E-02  0.4663E-02
      2.798  0.3088E-02  0.4984E-02
      2.902  0.3557E-02  0.5353E-02
      3.006  0.1018E-01  0.6409E-02
      3.109  0.2101E-01  0.8590E-02
      3.213  0.3455E-01  0.1218E-01
      3.317  0.4781E-01  0.1714E-01
      3.421  0.5940E-01  0.2330E-01
      3.524  0.7642E-01  0.3123E-01
      3.628  0.9360E-01  0.4095E-01
      3.732  0.9364E-01  0.5067E-01
      3.836  0.8422E-01  0.5941E-01
      3.940  0.7947E-01  0.6765E-01
      4.043  0.7394E-01  0.7533E-01
      4.147  0.6280E-01  0.8185E-01
      4.251  0.5722E-01  0.8778E-01
      4.355  0.6593E-01  0.9463E-01
      4.459  0.7260E-01  0.1022E+00
      4.562  0.6955E-01  0.1094E+00
      4.666  0.6793E-01  0.1164E+00
      4.770  0.7140E-01  0.1238E+00
      4.874  0.7885E-01  0.1320E+00
      4.977  0.8882E-01  0.1412E+00
      5.081  0.9933E-01  0.1515E+00
      5.185  0.1106E+00  0.1630E+00
      5.289  0.1192E+00  0.1754E+00
      5.393  0.1122E+00  0.1870E+00
      5.496  0.9107E-01  0.1965E+00
      5.600  0.7752E-01  0.2045E+00
      5.704  0.7594E-01  0.2124E+00
      5.808  0.6986E-01  0.2197E+00
      5.912  0.6410E-01  0.2263E+00
      6.015  0.7657E-01  0.2343E+00
      6.119  0.9563E-01  0.2442E+00
      6.223  0.9416E-01  0.2540E+00
      6.327  0.7903E-01  0.2622E+00
      6.430  0.7680E-01  0.2701E+00
      6.534  0.7780E-01  0.2782E+00
      6.638  0.6983E-01  0.2855E+00
      6.742  0.7147E-01  0.2929E+00
      6.846  0.8217E-01  0.3014E+00
      6.949  0.9190E-01  0.3109E+00
      7.053  0.1069E+00  0.3220E+00
      7.157  0.1093E+00  0.3334E+00
      7.261  0.8297E-01  0.3420E+00
      7.365  0.4922E-01  0.3471E+00
      7.468  0.2372E-01  0.3496E+00
      7.572  0.8587E-02  0.3504E+00
      7.676  0.4372E-02  0.3509E+00
      7.780  0.5115E-02  0.3514E+00
      7.883  0.5068E-02  0.3520E+00
      7.987  0.4592E-02  0.3524E+00
      8.091  0.7572E-02  0.3532E+00
      8.195  0.1368E-01  0.3546E+00
      8.299  0.1543E-01  0.3562E+00
      8.402  0.1191E-01  0.3575E+00
      8.506  0.9724E-02  0.3585E+00
      8.610  0.6707E-02  0.3592E+00
      8.714  0.1640E-02  0.3594E+00
      8.818  0.5833E-03  0.3594E+00
      8.921  0.6016E-02  0.3600E+00
      9.025  0.1500E-01  0.3616E+00
      9.129  0.2121E-01  0.3638E+00
      9.233  0.1786E-01  0.3657E+00
      9.336  0.8785E-02  0.3666E+00
      9.440  0.4999E-02  0.3671E+00
      9.544  0.5985E-02  0.3677E+00
      9.648  0.6739E-02  0.3684E+00
      9.752  0.7038E-02  0.3691E+00
      9.855  0.6836E-02  0.3698E+00
      9.959  0.7750E-02  0.3706E+00
     10.063  0.9686E-02  0.3717E+00
     10.167  0.9881E-02  0.3727E+00
     10.270  0.7800E-02  0.3735E+00
     10.374  0.7224E-02  0.3742E+00
     10.478  0.1456E-01  0.3757E+00
     10.582  0.2309E-01  0.3781E+00
     10.686  0.1813E-01  0.3800E+00
     10.789  0.5463E-02  0.3806E+00
     10.893 -0.1964E-03  0.3806E+00
     10.997  0.2377E-02  0.3808E+00
     11.101  0.5575E-02  0.3814E+00
     11.205  0.4009E-02  0.3818E+00
     11.308  0.2915E-02  0.3821E+00
     11.412  0.9659E-02  0.3831E+00
     11.516  0.1860E-01  0.3850E+00
     11.620  0.1884E-01  0.3870E+00
     11.723  0.1056E-01  0.3881E+00
     11.827  0.2933E-02  0.3884E+00
     11.931  0.1538E-02  0.3886E+00
     12.035  0.4392E-02  0.3890E+00
     12.139  0.8461E-02  0.3899E+00
     12.242  0.1066E-01  0.3910E+00
     12.346  0.9434E-02  0.3920E+00
     12.450  0.6607E-02  0.3927E+00
     12.554  0.4692E-02  0.3932E+00
     12.658  0.5479E-02  0.3937E+00
     12.761  0.5608E-02  0.3943E+00
     12.865  0.3620E-02  0.3947E+00
     12.969  0.2388E-02  0.3949E+00
     13.073  0.2228E-02  0.3952E+00
     13.176  0.5843E-02  0.3958E+00
     13.280  0.1469E-01  0.3973E+00
     13.384  0.2013E-01  0.3994E+00
     13.488  0.1579E-01  0.4010E+00
     13.592  0.9605E-02  0.4020E+00
     13.695  0.8756E-02  0.4029E+00
     13.799  0.9349E-02  0.4039E+00
     13.903  0.1069E-01  0.4050E+00
     14.007  0.1298E-01  0.4064E+00
     14.111  0.1289E-01  0.4077E+00
     14.214  0.1069E-01  0.4088E+00
     14.318  0.8375E-02  0.4097E+00
     14.422  0.1055E-01  0.4108E+00
     14.526  0.1771E-01  0.4126E+00
     14.629  0.1953E-01  0.4146E+00
     14.733  0.1095E-01  0.4158E+00
     14.837  0.1982E-02  0.4160E+00
     14.941  0.9515E-03  0.4161E+00
     15.045  0.5008E-02  0.4166E+00
     15.148  0.9816E-02  0.4176E+00
     15.252  0.1511E-01  0.4192E+00
     15.356  0.1632E-01  0.4209E+00
     15.460  0.1068E-01  0.4220E+00
     15.564  0.7489E-02  0.4228E+00
     15.667  0.1063E-01  0.4239E+00
     15.771  0.1298E-01  0.4252E+00
     15.875  0.1207E-01  0.4265E+00
     15.979  0.8153E-02  0.4273E+00
     16.082  0.3405E-02  0.4277E+00
     16.186  0.3541E-02  0.4280E+00
     16.290  0.7566E-02  0.4288E+00
     16.394  0.1289E-01  0.4301E+00
     16.498  0.1957E-01  0.4322E+00
     16.601  0.1937E-01  0.4342E+00
     16.705  0.1094E-01  0.4353E+00
     16.809  0.1143E-01  0.4365E+00
     16.913  0.2523E-01  0.4391E+00
     17.017  0.3154E-01  0.4424E+00
     17.120  0.1993E-01  0.4445E+00
     17.224  0.8533E-02  0.4454E+00
     17.328  0.9949E-02  0.4464E+00
     17.432  0.1375E-01  0.4478E+00
     17.535  0.1087E-01  0.4489E+00
     17.639  0.7300E-02  0.4497E+00
     17.743  0.1064E-01  0.4508E+00
     17.847  0.1733E-01  0.4526E+00
     17.951  0.2084E-01  0.4548E+00
     18.054  0.2089E-01  0.4569E+00
     18.158  0.1859E-01  0.4589E+00
     18.262  0.1309E-01  0.4602E+00
     18.366  0.6782E-02  0.4609E+00
     18.470  0.5661E-02  0.4615E+00
     18.573  0.1144E-01  0.4627E+00
     18.677  0.2346E-01  0.4651E+00
     18.781  0.3355E-01  0.4686E+00
     18.885  0.2889E-01  0.4716E+00
     18.988  0.1646E-01  0.4733E+00
     19.092  0.1181E-01  0.4746E+00
     19.196  0.1051E-01  0.4756E+00
     19.300  0.7057E-02  0.4764E+00
     19.404  0.1064E-01  0.4775E+00
     19.507  0.2405E-01  0.4800E+00
     19.611  0.3495E-01  0.4836E+00
     19.715  0.3106E-01  0.4868E+00
     19.819  0.1885E-01  0.4888E+00
     19.923  0.1323E-01  0.4902E+00
     20.026  0.1496E-01  0.4917E+00
     20.130  0.1749E-01  0.4935E+00
     20.234  0.1935E-01  0.4955E+00
     20.338  0.1746E-01  0.4973E+00
     20.441  0.1136E-01  0.4985E+00
     20.545  0.7963E-02  0.4993E+00
     20.649  0.8291E-02  0.5002E+00
     20.753  0.1261E-01  0.5015E+00
     20.857  0.2259E-01  0.5039E+00
     20.960  0.2941E-01  0.5069E+00
     21.064  0.2564E-01  0.5096E+00
     21.168  0.2021E-01  0.5117E+00
     21.272  0.2165E-01  0.5139E+00
     21.376  0.2337E-01  0.5163E+00
     21.479  0.2088E-01  0.5185E+00
     21.583  0.1699E-01  0.5203E+00
     21.687  0.1302E-01  0.5216E+00
     21.791  0.1178E-01  0.5229E+00
     21.894  0.1461E-01  0.5244E+00
     21.998  0.2123E-01  0.5266E+00
     22.102  0.2691E-01  0.5294E+00
     22.206  0.2424E-01  0.5319E+00
     22.310  0.1563E-01  0.5335E+00
     22.413  0.8679E-02  0.5344E+00
     22.517  0.4789E-02  0.5349E+00
     22.621  0.6824E-02  0.5356E+00
     22.725  0.1811E-01  0.5375E+00
     22.829  0.2826E-01  0.5404E+00
     22.932  0.2555E-01  0.5431E+00
     23.036  0.1585E-01  0.5447E+00
     23.140  0.1114E-01  0.5459E+00
     23.244  0.1409E-01  0.5473E+00
     23.347  0.2049E-01  0.5495E+00
     23.451  0.2334E-01  0.5519E+00
     23.555  0.2364E-01  0.5543E+00
     23.659  0.2555E-01  0.5570E+00
     23.763  0.2374E-01  0.5595E+00
     23.866  0.1864E-01  0.5614E+00
     23.970  0.1707E-01  0.5632E+00
     24.074  0.1540E-01  0.5648E+00
     24.178  0.1206E-01  0.5660E+00
     24.282  0.1460E-01  0.5675E+00
     24.385  0.2101E-01  0.5697E+00
     24.489  0.2142E-01  0.5719E+00
     24.593  0.1473E-01  0.5735E+00
     24.697  0.9993E-02  0.5745E+00
     24.800  0.1306E-01  0.5758E+00
     24.904  0.1838E-01  0.5778E+00
     25.008  0.1803E-01  0.5796E+00
     25.112  0.1274E-01  0.5810E+00
     25.216  0.8341E-02  0.5818E+00
     25.319  0.6652E-02  0.5825E+00
     25.423  0.5598E-02  0.5831E+00
     25.527  0.4097E-02  0.5835E+00
     25.631  0.4499E-02  0.5840E+00
     25.734  0.9966E-02  0.5850E+00
     25.838  0.1689E-01  0.5868E+00
     25.942  0.1833E-01  0.5887E+00
     26.046  0.1561E-01  0.5903E+00
     26.150  0.1336E-01  0.5917E+00
     26.253  0.1007E-01  0.5927E+00
     26.357  0.4746E-02  0.5932E+00
     26.461  0.7001E-03  0.5933E+00
     26.565 -0.4534E-03  0.5932E+00
     26.669 -0.1253E-03  0.5932E+00
     26.772  0.1461E-02  0.5934E+00
     26.876  0.6730E-02  0.5941E+00
     26.980  0.1271E-01  0.5954E+00
     27.084  0.1076E-01  0.5965E+00
     27.187  0.4245E-02  0.5970E+00
     27.291  0.3951E-02  0.5974E+00
     27.395  0.8023E-02  0.5982E+00
     27.499  0.7525E-02  0.5990E+00
     27.603  0.2821E-02  0.5993E+00
     27.706 -0.1450E-03  0.5993E+00
     27.810 -0.2843E-03  0.5992E+00
     27.914  0.8902E-03  0.5993E+00
     28.018  0.2012E-02  0.5995E+00
     28.122  0.1675E-02  0.5997E+00
     28.225  0.4675E-03  0.5997E+00
     28.329 -0.1485E-04  0.5997E+00
     28.433  0.4593E-03  0.5998E+00
     28.537  0.1019E-02  0.5999E+00
     28.640  0.8191E-03  0.6000E+00
     28.744  0.2263E-03  0.6000E+00
     28.848 -0.4124E-04  0.6000E+00
     28.952 -0.3746E-04  0.6000E+00
     29.056 -0.8434E-05  0.6000E+00
     29.159 -0.9014E-06  0.6000E+00
     29.263 -0.5117E-07  0.6000E+00
     29.367 -0.1608E-08  0.6000E+00
     29.471 -0.2851E-10  0.6000E+00
     29.575 -0.2883E-12  0.6000E+00
     29.678 -0.1674E-14  0.6000E+00
     29.782 -0.5572E-17  0.6000E+00
     29.886  0.0000E+00  0.6000E+00
     29.990  0.0000E+00  0.6000E+00
     30.093  0.0000E+00  0.6000E+00
     30.197  0.0000E+00  0.6000E+00
     30.301  0.0000E+00  0.6000E+00
     30.405  0.0000E+00  0.6000E+00
     30.509  0.0000E+00  0.6000E+00
