    1    1   30    1
  0.1752695E+02  0.2915684E-09  0.2915684E-09  0.2915684E-09  0.5000000E-15
  1.000000000000000E-004
  CAR 
 unknown system                          
     10     60      9
 
  0.6250000E-01  0.6250000E-01  0.6250000E-01  0.3906250E-02
    1        1.373049
    2        4.965672
    3        5.039895
    4        5.039895
    5        6.200558
    6        6.200558
    7       24.187957
    8       26.986256
    9       28.011402
 
  0.1875000E+00  0.6250000E-01  0.6250000E-01  0.1171875E-01
    1        1.988235
    2        4.792000
    3        5.203527
    4        5.223416
    5        6.039992
    6        6.291947
    7       23.793280
    8       24.909756
    9       27.377509
 
  0.3125000E+00  0.6250000E-01  0.6250000E-01  0.1171875E-01
    1        3.002733
    2        4.976261
    3        5.247232
    4        5.268825
    5        6.225333
    6        6.720954
    7       19.553365
    8       24.410191
    9       26.966926
 
  0.4375000E+00  0.6250000E-01  0.6250000E-01  0.1171875E-01
    1        3.180164
    2        5.005474
    3        5.093141
    4        6.382944
    5        6.807268
    6        7.825253
    7       15.237055
    8       23.655616
    9       25.858823
 
 -0.4375000E+00  0.6250000E-01  0.6250000E-01  0.1171875E-01
    1        3.138269
    2        4.923071
    3        5.044899
    4        6.697181
    5        7.122832
    6        8.935093
    7       13.331919
    8       23.437092
    9       25.979176
 
 -0.3125000E+00  0.6250000E-01  0.6250000E-01  0.1171875E-01
    1        3.186838
    2        5.046752
    3        5.173339
    4        5.845392
    5        6.901465
    6        7.142860
    7       16.584199
    8       24.023822
    9       26.256763
 
 -0.1875000E+00  0.6250000E-01  0.6250000E-01  0.1171875E-01
    1        2.711657
    2        4.772280
    3        5.264651
    4        5.303172
    5        6.177143
    6        6.445670
    7       21.066432
    8       24.903105
    9       27.004521
 
 -0.6250000E-01  0.6250000E-01  0.6250000E-01  0.1171875E-01
    1        1.690688
    2        4.834572
    3        5.155928
    4        5.160064
    5        6.061015
    6        6.271580
    7       24.308635
    8       25.864250
    9       27.430722
 
  0.1875000E+00  0.1875000E+00  0.6250000E-01  0.1171875E-01
    1        2.281759
    2        4.580684
    3        5.374351
    4        5.394040
    5        5.876924
    6        6.404316
    7       24.122120
    8       25.131826
    9       26.167751
 
  0.3125000E+00  0.1875000E+00  0.6250000E-01  0.2343750E-01
    1        3.200493
    2        4.354598
    3        5.230312
    4        5.683468
    5        6.171425
    6        6.816407
    7       21.477379
    8       23.368179
    9       25.827228
 
  0.4375000E+00  0.1875000E+00  0.6250000E-01  0.2343750E-01
    1        3.575670
    2        4.779157
    3        5.037756
    4        5.580433
    5        6.885060
    6        8.242625
    7       16.941377
    8       22.867613
    9       23.972984
 
 -0.4375000E+00  0.1875000E+00  0.6250000E-01  0.2343750E-01
    1        3.534334
    2        4.643359
    3        5.406396
    4        5.719165
    5        7.074137
    6       10.523100
    7       13.432966
    8       22.389885
    9       23.347676
 
 -0.3125000E+00  0.1875000E+00  0.6250000E-01  0.2343750E-01
    1        3.620701
    2        4.751425
    3        5.327945
    4        5.540223
    5        6.726719
    6        9.125867
    7       15.612278
    8       21.778176
    9       24.382438
 
 -0.1875000E+00  0.1875000E+00  0.6250000E-01  0.2343750E-01
    1        3.525516
    2        4.507991
    3        5.085943
    4        5.651845
    5        6.046687
    6        7.395475
    7       19.976265
    8       22.015866
    9       26.106559
 
 -0.6250000E-01  0.1875000E+00  0.6250000E-01  0.2343750E-01
    1        2.537640
    2        4.613550
    3        5.303342
    4        5.393318
    5        5.951752
    6        6.490718
    7       22.692368
    8       24.277175
    9       26.937941
 
  0.3125000E+00  0.3125000E+00  0.6250000E-01  0.1171875E-01
    1        3.450315
    2        3.940026
    3        5.745172
    4        6.126662
    5        6.628251
    6        6.781254
    7       21.799689
    8       22.820283
    9       23.481274
 
  0.4375000E+00  0.3125000E+00  0.6250000E-01  0.2343750E-01
    1        3.600760
    2        3.822072
    3        5.669832
    4        6.447345
    5        6.939766
    6        8.501143
    7       19.094291
    8       20.903213
    9       21.176097
 
 -0.4375000E+00  0.3125000E+00  0.6250000E-01  0.2343750E-01
    1        3.690910
    2        4.163463
    3        5.373552
    4        6.174174
    5        7.131520
    6       11.468050
    7       15.040274
    8       19.133869
    9       21.298191
 
 -0.3125000E+00  0.3125000E+00  0.6250000E-01  0.2343750E-01
    1        4.031587
    2        4.491160
    3        4.940970
    4        5.981745
    5        6.755686
    6       11.632953
    7       15.322882
    8       17.812213
    9       22.795316
 
 -0.1875000E+00  0.3125000E+00  0.6250000E-01  0.2343750E-01
    1        4.066352
    2        4.620143
    3        4.796113
    4        5.805037
    5        6.362284
    6        9.155055
    7       17.486315
    8       19.610510
    9       24.484439
 
 -0.6250000E-01  0.3125000E+00  0.6250000E-01  0.2343750E-01
    1        3.320769
    2        5.012606
    3        5.123165
    4        5.365605
    5        6.496332
    6        7.268571
    7       18.179832
    8       23.713754
    9       25.721738
 
  0.4375000E+00  0.4375000E+00  0.6250000E-01  0.1171875E-01
    1        3.248268
    2        3.444081
    3        6.836469
    4        6.865690
    5        7.167495
    6        9.200114
    7       18.413197
    8       19.530568
    9       20.235218
 
 -0.4375000E+00  0.4375000E+00  0.6250000E-01  0.2343750E-01
    1        3.297528
    2        3.507701
    3        6.462603
    4        6.846741
    5        7.292173
    6       11.435062
    7       16.528208
    8       17.868203
    9       19.490897
 
 -0.3125000E+00  0.4375000E+00  0.6250000E-01  0.2343750E-01
    1        3.638040
    2        4.047791
    3        5.545819
    4        6.376738
    5        7.094915
    6       13.231454
    7       14.578406
    8       16.995486
    9       20.930837
 
 -0.1875000E+00  0.4375000E+00  0.6250000E-01  0.2343750E-01
    1        3.827337
    2        4.472912
    3        5.311741
    4        5.705791
    5        6.949087
    6       11.556263
    7       13.676635
    8       20.136521
    9       22.948405
 
 -0.6250000E-01  0.4375000E+00  0.6250000E-01  0.2343750E-01
    1        3.302204
    2        4.850072
    3        5.187987
    4        6.119805
    5        7.023119
    6        9.046571
    7       14.154545
    8       23.299620
    9       24.760729
 
 -0.4375000E+00 -0.4375000E+00  0.6250000E-01  0.1171875E-01
    1        3.122793
    2        3.332933
    3        7.025648
    4        7.113556
    5        7.307528
    6       10.562356
    7       16.560339
    8       18.946811
    9       19.637510
 
 -0.3125000E+00 -0.4375000E+00  0.6250000E-01  0.2343750E-01
    1        3.422934
    2        3.615209
    3        6.135863
    4        6.755889
    5        7.147146
    6       10.011871
    7       18.009298
    8       18.807359
    9       20.011566
 
 -0.1875000E+00 -0.4375000E+00  0.6250000E-01  0.2343750E-01
    1        3.698564
    2        4.421160
    3        5.161030
    4        5.874086
    5        7.088992
    6        9.698467
    7       15.867192
    8       21.608943
    9       21.994928
 
 -0.3125000E+00 -0.3125000E+00  0.6250000E-01  0.1171875E-01
    1        3.428027
    2        3.654606
    3        6.336936
    4        6.537140
    5        6.980956
    6        7.701309
    7       20.478032
    8       21.008958
    9       21.341450
 
 -0.1875000E+00 -0.3125000E+00  0.6250000E-01  0.2343750E-01
    1        3.630493
    2        4.081672
    3        5.267133
    4        6.049640
    5        6.615013
    6        7.396710
    7       20.256072
    8       22.152045
    9       23.658584
 
 -0.1875000E+00 -0.1875000E+00  0.6250000E-01  0.1171875E-01
    1        2.997207
    2        4.264105
    3        5.481050
    4        5.726198
    5        6.023223
    6        6.581672
    7       23.099871
    8       24.507476
    9       24.997535
 
  0.1875000E+00  0.1875000E+00  0.1875000E+00  0.3906250E-02
    1        2.247660
    2        4.829161
    3        5.223327
    4        5.223327
    5        6.194836
    6        6.194836
    7       22.450088
    8       25.061433
    9       28.508615
 
  0.3125000E+00  0.1875000E+00  0.1875000E+00  0.1171875E-01
    1        2.995201
    2        4.604341
    3        5.258662
    4        5.467511
    5        5.887073
    6        6.842208
    7       21.279182
    8       23.168467
    9       27.334687
 
  0.4375000E+00  0.1875000E+00  0.1875000E+00  0.1171875E-01
    1        3.835414
    2        4.624062
    3        5.035232
    4        5.610965
    5        6.073714
    6        8.154755
    7       18.649342
    8       20.742898
    9       25.976266
 
 -0.4375000E+00  0.1875000E+00  0.1875000E+00  0.1171875E-01
    1        3.700707
    2        4.646894
    3        5.488686
    4        5.516126
    5        6.775477
    6       10.225953
    7       14.507664
    8       20.834373
    9       25.007637
 
 -0.3125000E+00  0.1875000E+00  0.1875000E+00  0.1171875E-01
    1        3.583993
    2        4.599010
    3        5.428684
    4        5.556150
    5        7.157560
    6       10.116422
    7       14.369302
    8       21.895753
    9       23.796329
 
 -0.1875000E+00  0.1875000E+00  0.1875000E+00  0.1171875E-01
    1        3.575849
    2        4.402617
    3        5.144304
    4        5.725559
    5        6.980805
    6        7.574093
    7       18.501943
    8       23.583896
    9       23.593689
 
  0.3125000E+00  0.3125000E+00  0.1875000E+00  0.1171875E-01
    1        3.239542
    2        4.625576
    3        5.155556
    4        5.470215
    5        6.620205
    6        6.727212
    7       19.748118
    8       24.623356
    9       25.238591
 
  0.4375000E+00  0.3125000E+00  0.1875000E+00  0.2343750E-01
    1        3.889122
    2        4.378931
    3        4.864434
    4        5.965614
    5        6.435307
    6        8.225018
    7       18.781324
    8       20.867448
    9       23.953000
 
 -0.4375000E+00  0.3125000E+00  0.1875000E+00  0.2343750E-01
    1        4.213730
    2        4.387382
    3        4.690447
    4        6.073249
    5        6.728072
    6       10.498574
    7       16.483535
    8       18.692160
    9       22.060849
 
 -0.3125000E+00  0.3125000E+00  0.1875000E+00  0.2343750E-01
    1        3.992188
    2        4.295199
    3        5.040017
    4        5.993544
    5        7.047790
    6       12.375288
    7       13.900446
    8       19.624927
    9       20.574968
 
 -0.1875000E+00  0.3125000E+00  0.1875000E+00  0.2343750E-01
    1        3.887251
    2        4.148634
    3        5.032367
    4        6.307221
    5        6.797950
    6        9.467329
    7       17.721959
    8       19.819697
    9       21.495748
 
  0.4375000E+00  0.4375000E+00  0.1875000E+00  0.1171875E-01
    1        3.600236
    2        4.095759
    3        5.477588
    4        6.045255
    5        7.154741
    6        8.941459
    7       17.374931
    8       21.290341
    9       22.238131
 
 -0.4375000E+00  0.4375000E+00  0.1875000E+00  0.2343750E-01
    1        3.729203
    2        3.936301
    3        5.386952
    4        6.503729
    5        7.089881
    6       11.070138
    7       16.874773
    8       18.705046
    9       19.389856
 
 -0.3125000E+00  0.4375000E+00  0.1875000E+00  0.2343750E-01
    1        3.893934
    2        4.301207
    3        4.920204
    4        6.221993
    5        7.284902
    6       13.985724
    7       15.239495
    8       16.933274
    9       18.171591
 
 -0.1875000E+00  0.4375000E+00  0.1875000E+00  0.2343750E-01
    1        4.055394
    2        4.308546
    3        4.792175
    4        6.210070
    5        7.064871
    6       12.181171
    7       15.695389
    8       17.995883
    9       19.634937
 
 -0.4375000E+00 -0.4375000E+00  0.1875000E+00  0.1171875E-01
    1        3.401194
    2        3.719186
    3        6.143567
    4        6.639662
    5        7.175519
    6       12.143809
    7       15.896889
    8       16.938137
    9       20.772105
 
 -0.3125000E+00 -0.4375000E+00  0.1875000E+00  0.2343750E-01
    1        3.600483
    2        3.841215
    3        5.660194
    4        6.518616
    5        7.286498
    6       12.665798
    7       16.236220
    8       17.033478
    9       18.790301
 
 -0.3125000E+00 -0.3125000E+00  0.1875000E+00  0.1171875E-01
    1        3.493122
    2        3.845012
    3        5.884579
    4        6.380736
    5        7.214397
    6       10.593136
    7       16.473960
    8       18.840349
    9       21.273864
 
  0.3125000E+00  0.3125000E+00  0.3125000E+00  0.3906250E-02
    1        3.059191
    2        5.160269
    3        5.160269
    4        5.639117
    5        6.589456
    6        6.589456
    7       17.976437
    8       24.362321
    9       27.980321
 
  0.4375000E+00  0.3125000E+00  0.3125000E+00  0.1171875E-01
    1        3.447464
    2        4.942629
    3        5.308950
    4        5.483066
    5        6.456497
    6        8.039764
    7       16.803430
    8       22.698621
    9       25.489324
 
 -0.4375000E+00  0.3125000E+00  0.3125000E+00  0.1171875E-01
    1        4.073009
    2        4.615734
    3        4.950389
    4        5.781029
    5        6.486878
    6       10.258495
    7       16.344324
    8       18.561855
    9       25.346525
 
 -0.3125000E+00  0.3125000E+00  0.3125000E+00  0.1171875E-01
    1        3.777317
    2        4.338073
    3        5.279132
    4        6.152195
    5        6.883865
    6       12.948907
    7       14.225917
    8       17.265460
    9       22.772173
 
  0.4375000E+00  0.4375000E+00  0.3125000E+00  0.1171875E-01
    1        3.375841
    2        4.849014
    3        5.311122
    4        5.620737
    5        7.104511
    6        8.461726
    7       15.373854
    8       23.559384
    9       24.849169
 
 -0.4375000E+00  0.4375000E+00  0.3125000E+00  0.2343750E-01
    1        3.827478
    2        4.486745
    3        5.187874
    4        5.746100
    5        6.958271
    6       10.601442
    7       14.618380
    8       21.017441
    9       22.169081
 
 -0.3125000E+00  0.4375000E+00  0.3125000E+00  0.2343750E-01
    1        3.972784
    2        4.335470
    3        4.935796
    4        6.151477
    5        7.064452
    6       13.316298
    7       14.487956
    8       17.347577
    9       20.295738
 
 -0.4375000E+00 -0.4375000E+00  0.3125000E+00  0.1171875E-01
    1        3.734563
    2        4.404798
    3        5.321403
    4        5.868378
    5        7.059041
    6       11.959077
    7       13.676775
    8       19.513212
    9       23.108229
 
  0.4375000E+00  0.4375000E+00  0.4375000E+00  0.3906250E-02
    1        3.076288
    2        5.001331
    3        5.001331
    4        7.046146
    5        7.046146
    6        7.898957
    7       14.043340
    8       23.546491
    9       26.708968
 
 -0.4375000E+00  0.4375000E+00  0.4375000E+00  0.1171875E-01
    1        3.355999
    2        4.785826
    3        5.216428
    4        6.124779
    5        7.021936
    6        9.871624
    7       13.387915
    8       22.806580
    9       24.875258
