       N       E                     dE             d eps       ncg     rms          rms(c)
DAV:   1     0.260907185784E+02    0.26091E+02   -0.41028E+03  1120   0.715E+02
DAV:   2    -0.500570782841E+01   -0.31096E+02   -0.29900E+02  1131   0.151E+02
DAV:   3    -0.531096470483E+01   -0.30526E+00   -0.30358E+00  1319   0.167E+01
DAV:   4    -0.531270128989E+01   -0.17366E-02   -0.17365E-02  1193   0.118E+00
DAV:   5    -0.531272983892E+01   -0.28549E-04   -0.28550E-04  1238   0.136E-01    0.478E+00
DAV:   6    -0.509859407412E+01    0.21414E+00   -0.13309E+00  1096   0.101E+01    0.236E+00
DAV:   7    -0.509510997232E+01    0.34841E-02   -0.38180E-03  1134   0.675E-01    0.136E+00
DAV:   8    -0.509346953608E+01    0.16404E-02   -0.70791E-04  1126   0.202E-01    0.209E-02
DAV:   9    -0.509348036916E+01   -0.10833E-04   -0.65405E-06   568   0.243E-02
   1 F= -.50934804E+01 E0= -.50910334E+01  d E =-.509348E+01
