 vasp.5.3.5 31Mar14 (build Jan 09 2015 16:57:47) complex                        
  
 executed on             LinuxIFC date 2015.03.24  14:25:57
 serial version


--------------------------------------------------------------------------------------------------------


 INCAR:
 POTCAR:    PAW_PBE Pd 04Jan2005                  
 POTCAR:    PAW_PBE Pd 04Jan2005                  
   VRHFIN =Pd : s1 d9                                                           
   LEXCH  = PE                                                                  
   EATOM  =   809.7530 eV,   59.5152 Ry                                         
                                                                                
   TITEL  = PAW_PBE Pd 04Jan2005                                                
   LULTRA =        F    use ultrasoft PP ?                                      
   IUNSCR =        1    unscreen: 0-lin 1-nonlin 2-no                           
   RPACOR =    2.000    partial core radius                                     
   POMASS =  106.420; ZVAL   =   10.000    mass and valenz                      
   RCORE  =    2.600    outmost cutoff radius                                   
   RWIGS  =    2.710; RWIGS  =    1.434    wigner-seitz radius (au A)           
   ENMAX  =  250.925; ENMIN  =  188.194 eV                                      
   ICORE  =        3    local potential                                         
   LCOR   =        T    correct aug charges                                     
   LPAW   =        T    paw PP                                                  
   EAUG   =  416.230                                                            
   DEXC   =    0.000                                                            
   RMAX   =    2.653    core radius for proj-oper                               
   RAUG   =    1.300    factor for augmentation sphere                          
   RDEP   =    2.734    radius for radial grids                                 
   RDEPT  =    2.103    core radius for aug-charge                              
                                                                                
   Atomic configuration                                                         
   12 entries                                                                   
     n  l   j            E        occ.                                          
     1  0  0.50    -24164.6631   2.0000                                         
     2  0  0.50     -3530.9218   2.0000                                         
     2  1  1.50     -3165.6822   6.0000                                         
     3  0  0.50      -639.4577   2.0000                                         
     3  1  1.50      -519.4532   6.0000                                         
     3  2  2.50      -328.9757  10.0000                                         
     4  0  0.50       -88.7014   2.0000                                         
     4  1  1.50       -54.4540   6.0000                                         
     4  2  2.50        -6.6878   9.0000                                         
     5  0  0.50        -4.3543   1.0000                                         
     5  1  0.50        -1.3606   0.0000                                         
     4  3  2.50        -1.3606   0.0000                                         
   Description                                                                  
     l       E           TYP  RCUT    TYP  RCUT                                 
     2     -6.6878251     23  2.400                                             
     2     -8.0484077     23  2.400                                             
     0     -4.3542939     23  2.400                                             
     0      4.3406793     23  2.400                                             
     1     -4.0817478     23  2.600                                             
     1     15.8380318     23  2.600                                             
     3     -4.0817478     23  2.400                                             
  local pseudopotential read in
  partial core-charges read in
  partial kinetic energy density read in
  atomic valenz-charges read in
  non local Contribution for L=           2  read in
    real space projection operators read in
  non local Contribution for L=           2  read in
    real space projection operators read in
  non local Contribution for L=           0  read in
    real space projection operators read in
  non local Contribution for L=           0  read in
    real space projection operators read in
  non local Contribution for L=           1  read in
    real space projection operators read in
  non local Contribution for L=           1  read in
    real space projection operators read in
    PAW grid and wavefunctions read in
 
   number of l-projection  operators is LMAX  =           6
   number of lm-projection operators is LMMAX =          18
 
  PAW_PBE Pd 04Jan2005                  :
 energy of atom  1       EATOM= -809.7530
 kinetic energy error for atom=    0.0269 (will be added to EATOM!!)
 
 
 POSCAR: Pd                                      
  positions in cartesian coordinates
  No initial velocities read in
 exchange correlation table for  LEXCH =        8
   RHO(1)=    0.500       N(1)  =     2000
   RHO(2)=  100.500       N(2)  =     4000

 VTST: version 3.1, (03/28/14)

 CHAIN: initializing optimizer
 
 OPT: Using VASP Conjugate-Gradient optimizer
 CHAIN: Read ICHAIN            0
 
 POSCAR: Pd                                      
  positions in cartesian coordinates
  No initial velocities read in
 


--------------------------------------------------------------------------------------------------------


 ion  position               nearest neighbor table
   1  0.000  0.000  0.000-
 
  LATTYP: Found a face centered cubic cell.
 ALAT       =     4.1234000000
  
  Lattice vectors:
  
 A1 = (   2.9156841015,   0.0000000000,   0.0000000000)
 A2 = (   1.4578420508,   2.5250565013,   0.0000000000)
 A3 = (   1.4578420508,   0.8416855004,   2.3806461000)


Analysis of symmetry for initial positions (statically):
=====================================================================
 Subroutine PRICEL returns:
 Original cell was already a primitive cell.
 

 Routine SETGRP: Setting up the symmetry group for a 
 face centered cubic supercell.


 Subroutine GETGRP returns: Found 48 space group operations
 (whereof 48 operations were pure point group operations)
 out of a pool of 48 trial point group operations.


The static configuration has the point symmetry O_h .


Analysis of symmetry for dynamics (positions and initial velocities):
=====================================================================
 Subroutine PRICEL returns:
 Original cell was already a primitive cell.
 

 Routine SETGRP: Setting up the symmetry group for a 
 face centered cubic supercell.


 Subroutine GETGRP returns: Found 48 space group operations
 (whereof 48 operations were pure point group operations)
 out of a pool of 48 trial point group operations.


The dynamic configuration has the point symmetry O_h .
 
 
 KPOINTS: KPOINTS created by Atomic Simulation Env

Automatic generation of k-mesh.
Space group operators:
 irot       det(A)        alpha          n_x          n_y          n_z        tau_x        tau_y        tau_z
    1     1.000000     0.000000     1.000000     0.000000     0.000000     0.000000     0.000000     0.000000
    2    -1.000000     0.000000     1.000000     0.000000     0.000000     0.000000     0.000000     0.000000
    3     1.000000   120.000000    -0.816497    -0.471405    -0.333333     0.000000     0.000000     0.000000
    4    -1.000000   120.000000    -0.816497    -0.471405    -0.333333     0.000000     0.000000     0.000000
    5     1.000000   120.000000     0.816497     0.471405     0.333333     0.000000     0.000000     0.000000
    6    -1.000000   120.000000     0.816497     0.471405     0.333333     0.000000     0.000000     0.000000
    7     1.000000    90.000000    -0.707107    -0.408248     0.577350     0.000000     0.000000     0.000000
    8    -1.000000    90.000000    -0.707107    -0.408248     0.577350     0.000000     0.000000     0.000000
    9     1.000000   180.000000     1.000000     0.000000     0.000000     0.000000     0.000000     0.000000
   10    -1.000000   180.000000     1.000000     0.000000     0.000000     0.000000     0.000000     0.000000
   11     1.000000    90.000000     0.707107    -0.408248     0.577350     0.000000     0.000000     0.000000
   12    -1.000000    90.000000     0.707107    -0.408248     0.577350     0.000000     0.000000     0.000000
   13     1.000000   180.000000     0.707107     0.408248    -0.577350     0.000000     0.000000     0.000000
   14    -1.000000   180.000000     0.707107     0.408248    -0.577350     0.000000     0.000000     0.000000
   15     1.000000   120.000000     0.816497    -0.471405    -0.333333     0.000000     0.000000     0.000000
   16    -1.000000   120.000000     0.816497    -0.471405    -0.333333     0.000000     0.000000     0.000000
   17     1.000000   120.000000     0.000000    -0.942809     0.333333     0.000000     0.000000     0.000000
   18    -1.000000   120.000000     0.000000    -0.942809     0.333333     0.000000     0.000000     0.000000
   19     1.000000    90.000000     0.707107     0.408248    -0.577350     0.000000     0.000000     0.000000
   20    -1.000000    90.000000     0.707107     0.408248    -0.577350     0.000000     0.000000     0.000000
   21     1.000000    90.000000     0.000000    -0.816497    -0.577350     0.000000     0.000000     0.000000
   22    -1.000000    90.000000     0.000000    -0.816497    -0.577350     0.000000     0.000000     0.000000
   23     1.000000   180.000000     0.500000     0.866025     0.000000     0.000000     0.000000     0.000000
   24    -1.000000   180.000000     0.500000     0.866025     0.000000     0.000000     0.000000     0.000000
   25     1.000000   120.000000     0.000000     0.942809    -0.333333     0.000000     0.000000     0.000000
   26    -1.000000   120.000000     0.000000     0.942809    -0.333333     0.000000     0.000000     0.000000
   27     1.000000   120.000000     0.000000     0.000000    -1.000000     0.000000     0.000000     0.000000
   28    -1.000000   120.000000     0.000000     0.000000    -1.000000     0.000000     0.000000     0.000000
   29     1.000000   180.000000     0.000000    -0.816497    -0.577350     0.000000     0.000000     0.000000
   30    -1.000000   180.000000     0.000000    -0.816497    -0.577350     0.000000     0.000000     0.000000
   31     1.000000    90.000000    -0.707107     0.408248    -0.577350     0.000000     0.000000     0.000000
   32    -1.000000    90.000000    -0.707107     0.408248    -0.577350     0.000000     0.000000     0.000000
   33     1.000000   180.000000     0.500000     0.288675     0.816497     0.000000     0.000000     0.000000
   34    -1.000000   180.000000     0.500000     0.288675     0.816497     0.000000     0.000000     0.000000
   35     1.000000    90.000000     0.000000     0.816497     0.577350     0.000000     0.000000     0.000000
   36    -1.000000    90.000000     0.000000     0.816497     0.577350     0.000000     0.000000     0.000000
   37     1.000000   120.000000    -0.816497     0.471405     0.333333     0.000000     0.000000     0.000000
   38    -1.000000   120.000000    -0.816497     0.471405     0.333333     0.000000     0.000000     0.000000
   39     1.000000   179.999999    -0.707107     0.408248    -0.577350     0.000000     0.000000     0.000000
   40    -1.000000   179.999999    -0.707107     0.408248    -0.577350     0.000000     0.000000     0.000000
   41     1.000000   120.000000     0.000000     0.000000     1.000000     0.000000     0.000000     0.000000
   42    -1.000000   120.000000     0.000000     0.000000     1.000000     0.000000     0.000000     0.000000
   43     1.000000   180.000000     0.000000    -0.577350     0.816497     0.000000     0.000000     0.000000
   44    -1.000000   180.000000     0.000000    -0.577350     0.816497     0.000000     0.000000     0.000000
   45     1.000000   180.000000    -0.500000     0.866025     0.000000     0.000000     0.000000     0.000000
   46    -1.000000   180.000000    -0.500000     0.866025     0.000000     0.000000     0.000000     0.000000
   47     1.000000   179.999999    -0.500000     0.288675     0.816497     0.000000     0.000000     0.000000
   48    -1.000000   179.999999    -0.500000     0.288675     0.816497     0.000000     0.000000     0.000000
 
 Subroutine IBZKPT returns following result:
 ===========================================
 
 Found     60 irreducible k-points:
 
 Following reciprocal coordinates:
            Coordinates               Weight
  0.062500  0.062500  0.062500     96.000000
  0.187500  0.062500  0.062500    288.000000
  0.312500  0.062500  0.062500    288.000000
  0.437500  0.062500  0.062500    288.000000
 -0.437500  0.062500  0.062500    288.000000
 -0.312500  0.062500  0.062500    288.000000
 -0.187500  0.062500  0.062500    288.000000
 -0.062500  0.062500  0.062500    288.000000
  0.187500  0.187500  0.062500    288.000000
  0.312500  0.187500  0.062500    576.000000
  0.437500  0.187500  0.062500    576.000000
 -0.437500  0.187500  0.062500    576.000000
 -0.312500  0.187500  0.062500    576.000000
 -0.187500  0.187500  0.062500    576.000000
 -0.062500  0.187500  0.062500    576.000000
  0.312500  0.312500  0.062500    288.000000
  0.437500  0.312500  0.062500    576.000000
 -0.437500  0.312500  0.062500    576.000000
 -0.312500  0.312500  0.062500    576.000000
 -0.187500  0.312500  0.062500    576.000000
 -0.062500  0.312500  0.062500    576.000000
  0.437500  0.437500  0.062500    288.000000
 -0.437500  0.437500  0.062500    576.000000
 -0.312500  0.437500  0.062500    576.000000
 -0.187500  0.437500  0.062500    576.000000
 -0.062500  0.437500  0.062500    576.000000
 -0.437500 -0.437500  0.062500    288.000000
 -0.312500 -0.437500  0.062500    576.000000
 -0.187500 -0.437500  0.062500    576.000000
 -0.312500 -0.312500  0.062500    288.000000
 -0.187500 -0.312500  0.062500    576.000000
 -0.187500 -0.187500  0.062500    288.000000
  0.187500  0.187500  0.187500     96.000000
  0.312500  0.187500  0.187500    288.000000
  0.437500  0.187500  0.187500    288.000000
 -0.437500  0.187500  0.187500    288.000000
 -0.312500  0.187500  0.187500    288.000000
 -0.187500  0.187500  0.187500    288.000000
  0.312500  0.312500  0.187500    288.000000
  0.437500  0.312500  0.187500    576.000000
 -0.437500  0.312500  0.187500    576.000000
 -0.312500  0.312500  0.187500    576.000000
 -0.187500  0.312500  0.187500    576.000000
  0.437500  0.437500  0.187500    288.000000
 -0.437500  0.437500  0.187500    576.000000
 -0.312500  0.437500  0.187500    576.000000
 -0.187500  0.437500  0.187500    576.000000
 -0.437500 -0.437500  0.187500    288.000000
 -0.312500 -0.437500  0.187500    576.000000
 -0.312500 -0.312500  0.187500    288.000000
  0.312500  0.312500  0.312500     96.000000
  0.437500  0.312500  0.312500    288.000000
 -0.437500  0.312500  0.312500    288.000000
 -0.312500  0.312500  0.312500    288.000000
  0.437500  0.437500  0.312500    288.000000
 -0.437500  0.437500  0.312500    576.000000
 -0.312500  0.437500  0.312500    576.000000
 -0.437500 -0.437500  0.312500    288.000000
  0.437500  0.437500  0.437500     96.000000
 -0.437500  0.437500  0.437500    288.000000
 
 Following cartesian coordinates:
            Coordinates               Weight
  0.021436  0.012376  0.008751     96.000000
  0.064307 -0.012376 -0.008751    288.000000
  0.107179 -0.037128 -0.026253    288.000000
  0.150051 -0.061880 -0.043756    288.000000
 -0.150051  0.111384  0.078760    288.000000
 -0.107179  0.086632  0.061258    288.000000
 -0.064307  0.061880  0.043756    288.000000
 -0.021436  0.037128  0.026253    288.000000
  0.064307  0.037128 -0.026253    288.000000
  0.107179  0.012376 -0.043756    576.000000
  0.150051 -0.012376 -0.061258    576.000000
 -0.150051  0.160887  0.061258    576.000000
 -0.107179  0.136136  0.043756    576.000000
 -0.064307  0.111384  0.026253    576.000000
 -0.021436  0.086632  0.008751    576.000000
  0.107179  0.061880 -0.061258    288.000000
  0.150051  0.037128 -0.078760    576.000000
 -0.150051  0.210391  0.043756    576.000000
 -0.107179  0.185639  0.026253    576.000000
 -0.064307  0.160887  0.008751    576.000000
 -0.021436  0.136136 -0.008751    576.000000
  0.150051  0.086632 -0.096262    288.000000
 -0.150051  0.259895  0.026253    576.000000
 -0.107179  0.235143  0.008751    576.000000
 -0.064307  0.210391 -0.008751    576.000000
 -0.021436  0.185639 -0.026253    576.000000
 -0.150051 -0.086632  0.148769    288.000000
 -0.107179 -0.111384  0.131267    576.000000
 -0.064307 -0.136136  0.113765    576.000000
 -0.107179 -0.061880  0.113765    288.000000
 -0.064307 -0.086632  0.096262    576.000000
 -0.064307 -0.037128  0.078760    288.000000
  0.064307  0.037128  0.026253     96.000000
  0.107179  0.012376  0.008751    288.000000
  0.150051 -0.012376 -0.008751    288.000000
 -0.150051  0.160887  0.113765    288.000000
 -0.107179  0.136136  0.096262    288.000000
 -0.064307  0.111384  0.078760    288.000000
  0.107179  0.061880 -0.008751    288.000000
  0.150051  0.037128 -0.026253    576.000000
 -0.150051  0.210391  0.096262    576.000000
 -0.107179  0.185639  0.078760    576.000000
 -0.064307  0.160887  0.061258    576.000000
  0.150051  0.086632 -0.043756    288.000000
 -0.150051  0.259895  0.078760    576.000000
 -0.107179  0.235143  0.061258    576.000000
 -0.064307  0.210391  0.043756    576.000000
 -0.150051 -0.086632  0.201276    288.000000
 -0.107179 -0.111384  0.183774    576.000000
 -0.107179 -0.061880  0.166271    288.000000
  0.107179  0.061880  0.043756     96.000000
  0.150051  0.037128  0.026253    288.000000
 -0.150051  0.210391  0.148769    288.000000
 -0.107179  0.185639  0.131267    288.000000
  0.150051  0.086632  0.008751    288.000000
 -0.150051  0.259895  0.131267    576.000000
 -0.107179  0.235143  0.113765    576.000000
 -0.150051 -0.086632  0.253783    288.000000
  0.150051  0.086632  0.061258     96.000000
 -0.150051  0.259895  0.183774    288.000000
 


--------------------------------------------------------------------------------------------------------




 Dimension of arrays:
   k-points           NKPTS =     60   k-points in BZ     NKDIM =     60   number of bands    NBANDS=      9
   number of dos      NEDOS =    301   number of ions     NIONS =      1
   non local maximal  LDIM  =      6   non local SUM 2l+1 LMDIM =     18
   total plane-waves  NPLWV =   2744
   max r-space proj   IRMAX =      1   max aug-charges    IRDMAX=   7793
   dimension x,y,z NGX =    14 NGY =   14 NGZ =   14
   dimension x,y,z NGXF=    28 NGYF=   28 NGZF=   28
   support grid    NGXF=    28 NGYF=   28 NGZF=   28
   ions per type =               1
 NGX,Y,Z   is equivalent  to a cutoff of   7.98,  7.98,  7.98 a.u.
 NGXF,Y,Z  is equivalent  to a cutoff of  15.96, 15.96, 15.96 a.u.


 I would recommend the setting:
   dimension x,y,z NGX =    13 NGY =   13 NGZ =   13
 SYSTEM =  unknown system                          
 POSCAR =  Pd                                      

 Startparameter for this run:
   NWRITE =      2    write-flag & timer
   PREC   = normal    normal or accurate (medium, high low for compatibility)
   ISTART =      0    job   : 0-new  1-cont  2-samecut
   ICHARG =      2    charge: 1-file 2-atom 10-const
   ISPIN  =      1    spin polarized calculation?
   LNONCOLLINEAR =      F non collinear calculations
   LSORBIT =      F    spin-orbit coupling
   INIWAV =      1    electr: 0-lowe 1-rand  2-diag
   LASPH  =      F    aspherical Exc in radial PAW
   METAGGA=      F    non-selfconsistent MetaGGA calc.

 Electronic Relaxation 1
   ENCUT  =  350.0 eV  25.72 Ry    5.07 a.u.   4.45  4.45  4.45*2*pi/ulx,y,z
   ENINI  =  350.0     initial cutoff
   ENAUG  =  416.2 eV  augmentation charge cutoff
   NELM   =     60;   NELMIN=  2; NELMDL= -5     # of ELM steps 
   EDIFF  = 0.1E-03   stopping-criterion for ELM
   LREAL  =      F    real-space projection
   NLSPLINE    = F    spline interpolate recip. space projectors
   LCOMPAT=      F    compatible to vasp.4.4
   GGA_COMPAT  = T    GGA compatible to vasp.4.4-vasp.4.6
   LMAXPAW     = -100 max onsite density
   LMAXMIX     =    2 max onsite mixed and CHGCAR
   VOSKOWN=      0    Vosko Wilk Nusair interpolation
   ROPT   =    0.00000
 Ionic relaxation
   EDIFFG = 0.1E-02   stopping-criterion for IOM
   NSW    =     30    number of steps for IOM
   NBLOCK =      1;   KBLOCK =     30    inner block; outer block 
   IBRION =      2    ionic relax: 0-MD 1-quasi-New 2-CG
   NFREE  =      1    steps in history (QN), initial steepest desc. (CG)
   ISIF   =      2    stress and relaxation
   IWAVPR =     11    prediction:  0-non 1-charg 2-wave 3-comb
   ISYM   =      2    0-nonsym 1-usesym 2-fastsym
   LCORR  =      T    Harris-Foulkes like correction to forces

   POTIM  = 0.5000    time-step for ionic-motion
   TEIN   =    0.0    initial temperature
   TEBEG  =    0.0;   TEEND  =   0.0 temperature during run
   SMASS  =  -3.00    Nose mass-parameter (am)
   estimated Nose-frequenzy (Omega)   =  0.10E-29 period in steps =****** mass=  -0.194E-27a.u.
   SCALEE = 1.0000    scale energy and forces
   NPACO  =    256;   APACO  = 16.0  distance and # of slots for P.C.
   PSTRESS=    0.0 pullay stress

  Mass of Ions in am
   POMASS = 106.42
  Ionic Valenz
   ZVAL   =  10.00
  Atomic Wigner-Seitz radii
   RWIGS  =  -1.00
  virtual crystal weights 
   VCA    =   1.00
   NELECT =      10.0000    total number of electrons
   NUPDOWN=      -1.0000    fix difference up-down

 DOS related values:
   EMIN   =  10.00;   EMAX   =-10.00  energy-range for DOS
   EFERMI =   0.00
   ISMEAR =     1;   SIGMA  =   0.20  broadening in eV -4-tet -1-fermi 0-gaus

 Electronic relaxation 2 (details)
   IALGO  =     38    algorithm
   LDIAG  =      T    sub-space diagonalisation (order eigenvalues)
   LSUBROT=      F    optimize rotation matrix (better conditioning)
   TURBO    =      0    0=normal 1=particle mesh
   IRESTART =      0    0=no restart 2=restart with 2 vectors
   NREBOOT  =      0    no. of reboots
   NMIN     =      0    reboot dimension
   EREF     =   0.00    reference energy to select bands
   IMIX   =      4    mixing-type and parameters
     AMIX     =   0.40;   BMIX     =  1.00
     AMIX_MAG =   1.60;   BMIX_MAG =  1.00
     AMIN     =   0.10
     WC   =   100.;   INIMIX=   1;  MIXPRE=   1;  MAXMIX= -45

 Intra band minimization:
   WEIMIN = 0.0010     energy-eigenvalue tresh-hold
   EBREAK =  0.28E-05  absolut break condition
   DEPER  =   0.30     relativ break condition  

   TIME   =   0.40     timestep for ELM

  volume/ion in A,a.u.               =      17.53       118.28
  Fermi-wavevector in a.u.,A,eV,Ry     =   1.357811  2.565891 25.084395  1.843651
  Thomas-Fermi vector in A             =   2.484698
 
 Write flags
   LWAVE  =      T    write WAVECAR
   LCHARG =      T    write CHGCAR
   LVTOT  =      F    write LOCPOT, total local potential
   LVHAR  =      F    write LOCPOT, Hartree potential only
   LELF   =      F    write electronic localiz. function (ELF)
   LORBIT =      0    0 simple, 1 ext, 2 COOP (PROOUT)


 Dipole corrections
   LMONO  =      F    monopole corrections only (constant potential shift)
   LDIPOL =      F    correct potential (dipole corrections)
   IDIPOL =      0    1-x, 2-y, 3-z, 4-all directions 
   EPSILON=  1.0000000 bulk dielectric constant

 Exchange correlation treatment:
   GGA     =    --    GGA type
   LEXCH   =     8    internal setting for exchange type
   VOSKOWN=      0    Vosko Wilk Nusair interpolation
   LHFCALC =     F    Hartree Fock is set to
   LHFONE  =     F    Hartree Fock one center treatment
   AEXX    =    0.0000 exact exchange contribution

 Linear response parameters
   LEPSILON=     F    determine dielectric tensor
   LRPA    =     F    only Hartree local field effects (RPA)
   LNABLA  =     F    use nabla operator in PAW spheres
   LVEL    =     F    velocity operator in full k-point grid
   LINTERFAST=   F  fast interpolation
   KINTER  =     0    interpolate to denser k-point grid
   CSHIFT  =0.1000    complex shift for real part using Kramers Kronig
   OMEGAMAX=  -1.0    maximum frequency
   DEG_THRESHOLD= 0.2000000E-02 threshold for treating states as degnerate
   RTIME   =    0.100 relaxation time in fs

 Orbital magnetization related:
   ORBITALMAG=     F  switch on orbital magnetization
   LCHIMAG   =     F  perturbation theory with respect to B field
   DQ        =  0.001000  dq finite difference perturbation B field



--------------------------------------------------------------------------------------------------------


 conjugate gradient relaxation of ions
 charge density and potential will be updated during run
 non-spin polarized calculation
 Variant of blocked Davidson
 Davidson routine will perform the subspace rotation
 perform sub-space diagonalisation
    after iterative eigenvector-optimisation
 modified Broyden-mixing scheme, WC =      100.0
 initial mixing is a Kerker type mixing with AMIX =  0.4000 and BMIX =      1.0000
 Hartree-type preconditioning will be used
 using additional bands            4
 reciprocal scheme for non local part
 use partial core corrections
 calculate Harris-corrections to forces 
   (improved forces if not selfconsistent)
 use gradient corrections 
 use of overlap-Matrix (Vanderbilt PP)
 Methfessel and Paxton  Order N= 1 SIGMA  =   0.20


--------------------------------------------------------------------------------------------------------


  energy-cutoff  :      350.00
  volume of cell :       17.53
      direct lattice vectors                 reciprocal lattice vectors
     2.915684102  0.000000000  0.000000000     0.342972683 -0.198015371 -0.140018012
     1.457842051  2.525056501  0.000000000     0.000000000  0.396030742 -0.140018012
     1.457842051  0.841685500  2.380646100     0.000000000  0.000000000  0.420054035

  length of vectors
     2.915684102  2.915684102  2.915684102     0.420054035  0.420054035  0.420054035


 
 k-points in units of 2pi/SCALE and weight: KPOINTS created by Atomic Simulation Env
   0.02143579  0.01237596  0.00875113       0.004
   0.06430738 -0.01237596 -0.00875113       0.012
   0.10717896 -0.03712788 -0.02625338       0.012
   0.15005055 -0.06187980 -0.04375563       0.012
  -0.15005055  0.11138365  0.07876013       0.012
  -0.10717896  0.08663172  0.06125788       0.012
  -0.06430738  0.06187980  0.04375563       0.012
  -0.02143579  0.03712788  0.02625338       0.012
   0.06430738  0.03712788 -0.02625338       0.012
   0.10717896  0.01237596 -0.04375563       0.023
   0.15005055 -0.01237596 -0.06125788       0.023
  -0.15005055  0.16088749  0.06125788       0.023
  -0.10717896  0.13613557  0.04375563       0.023
  -0.06430738  0.11138365  0.02625338       0.023
  -0.02143579  0.08663172  0.00875113       0.023
   0.10717896  0.06187980 -0.06125788       0.012
   0.15005055  0.03712788 -0.07876013       0.023
  -0.15005055  0.21039133  0.04375563       0.023
  -0.10717896  0.18563941  0.02625338       0.023
  -0.06430738  0.16088749  0.00875113       0.023
  -0.02143579  0.13613557 -0.00875113       0.023
   0.15005055  0.08663172 -0.09626238       0.012
  -0.15005055  0.25989517  0.02625338       0.023
  -0.10717896  0.23514325  0.00875113       0.023
  -0.06430738  0.21039133 -0.00875113       0.023
  -0.02143579  0.18563941 -0.02625338       0.023
  -0.15005055 -0.08663172  0.14876914       0.012
  -0.10717896 -0.11138365  0.13126689       0.023
  -0.06430738 -0.13613557  0.11376463       0.023
  -0.10717896 -0.06187980  0.11376463       0.012
  -0.06430738 -0.08663172  0.09626238       0.023
  -0.06430738 -0.03712788  0.07876013       0.012
   0.06430738  0.03712788  0.02625338       0.004
   0.10717896  0.01237596  0.00875113       0.012
   0.15005055 -0.01237596 -0.00875113       0.012
  -0.15005055  0.16088749  0.11376463       0.012
  -0.10717896  0.13613557  0.09626238       0.012
  -0.06430738  0.11138365  0.07876013       0.012
   0.10717896  0.06187980 -0.00875113       0.012
   0.15005055  0.03712788 -0.02625338       0.023
  -0.15005055  0.21039133  0.09626238       0.023
  -0.10717896  0.18563941  0.07876013       0.023
  -0.06430738  0.16088749  0.06125788       0.023
   0.15005055  0.08663172 -0.04375563       0.012
  -0.15005055  0.25989517  0.07876013       0.023
  -0.10717896  0.23514325  0.06125788       0.023
  -0.06430738  0.21039133  0.04375563       0.023
  -0.15005055 -0.08663172  0.20127589       0.012
  -0.10717896 -0.11138365  0.18377364       0.023
  -0.10717896 -0.06187980  0.16627139       0.012
   0.10717896  0.06187980  0.04375563       0.004
   0.15005055  0.03712788  0.02625338       0.012
  -0.15005055  0.21039133  0.14876914       0.012
  -0.10717896  0.18563941  0.13126689       0.012
   0.15005055  0.08663172  0.00875113       0.012
  -0.15005055  0.25989517  0.13126689       0.023
  -0.10717896  0.23514325  0.11376463       0.023
  -0.15005055 -0.08663172  0.25378265       0.012
   0.15005055  0.08663172  0.06125788       0.004
  -0.15005055  0.25989517  0.18377364       0.012
 
 k-points in reciprocal lattice and weights: KPOINTS created by Atomic Simulation Env
   0.06250000  0.06250000  0.06250000       0.004
   0.18750000  0.06250000  0.06250000       0.012
   0.31250000  0.06250000  0.06250000       0.012
   0.43750000  0.06250000  0.06250000       0.012
  -0.43750000  0.06250000  0.06250000       0.012
  -0.31250000  0.06250000  0.06250000       0.012
  -0.18750000  0.06250000  0.06250000       0.012
  -0.06250000  0.06250000  0.06250000       0.012
   0.18750000  0.18750000  0.06250000       0.012
   0.31250000  0.18750000  0.06250000       0.023
   0.43750000  0.18750000  0.06250000       0.023
  -0.43750000  0.18750000  0.06250000       0.023
  -0.31250000  0.18750000  0.06250000       0.023
  -0.18750000  0.18750000  0.06250000       0.023
  -0.06250000  0.18750000  0.06250000       0.023
   0.31250000  0.31250000  0.06250000       0.012
   0.43750000  0.31250000  0.06250000       0.023
  -0.43750000  0.31250000  0.06250000       0.023
  -0.31250000  0.31250000  0.06250000       0.023
  -0.18750000  0.31250000  0.06250000       0.023
  -0.06250000  0.31250000  0.06250000       0.023
   0.43750000  0.43750000  0.06250000       0.012
  -0.43750000  0.43750000  0.06250000       0.023
  -0.31250000  0.43750000  0.06250000       0.023
  -0.18750000  0.43750000  0.06250000       0.023
  -0.06250000  0.43750000  0.06250000       0.023
  -0.43750000 -0.43750000  0.06250000       0.012
  -0.31250000 -0.43750000  0.06250000       0.023
  -0.18750000 -0.43750000  0.06250000       0.023
  -0.31250000 -0.31250000  0.06250000       0.012
  -0.18750000 -0.31250000  0.06250000       0.023
  -0.18750000 -0.18750000  0.06250000       0.012
   0.18750000  0.18750000  0.18750000       0.004
   0.31250000  0.18750000  0.18750000       0.012
   0.43750000  0.18750000  0.18750000       0.012
  -0.43750000  0.18750000  0.18750000       0.012
  -0.31250000  0.18750000  0.18750000       0.012
  -0.18750000  0.18750000  0.18750000       0.012
   0.31250000  0.31250000  0.18750000       0.012
   0.43750000  0.31250000  0.18750000       0.023
  -0.43750000  0.31250000  0.18750000       0.023
  -0.31250000  0.31250000  0.18750000       0.023
  -0.18750000  0.31250000  0.18750000       0.023
   0.43750000  0.43750000  0.18750000       0.012
  -0.43750000  0.43750000  0.18750000       0.023
  -0.31250000  0.43750000  0.18750000       0.023
  -0.18750000  0.43750000  0.18750000       0.023
  -0.43750000 -0.43750000  0.18750000       0.012
  -0.31250000 -0.43750000  0.18750000       0.023
  -0.31250000 -0.31250000  0.18750000       0.012
   0.31250000  0.31250000  0.31250000       0.004
   0.43750000  0.31250000  0.31250000       0.012
  -0.43750000  0.31250000  0.31250000       0.012
  -0.31250000  0.31250000  0.31250000       0.012
   0.43750000  0.43750000  0.31250000       0.012
  -0.43750000  0.43750000  0.31250000       0.023
  -0.31250000  0.43750000  0.31250000       0.023
  -0.43750000 -0.43750000  0.31250000       0.012
   0.43750000  0.43750000  0.43750000       0.004
  -0.43750000  0.43750000  0.43750000       0.012
 
 position of ions in fractional coordinates (direct lattice) 
   0.00000000  0.00000000  0.00000000
 
 position of ions in cartesian coordinates  (Angst):
   0.00000000  0.00000000  0.00000000
 


--------------------------------------------------------------------------------------------------------


 k-point  1 :   0.0625 0.0625 0.0625  plane waves:     271
 k-point  2 :   0.1875 0.0625 0.0625  plane waves:     269
 k-point  3 :   0.3125 0.0625 0.0625  plane waves:     265
 k-point  4 :   0.4375 0.0625 0.0625  plane waves:     261
 k-point  5 :  -0.4375 0.0625 0.0625  plane waves:     260
 k-point  6 :  -0.3125 0.0625 0.0625  plane waves:     264
 k-point  7 :  -0.1875 0.0625 0.0625  plane waves:     269
 k-point  8 :  -0.0625 0.0625 0.0625  plane waves:     269
 k-point  9 :   0.1875 0.1875 0.0625  plane waves:     267
 k-point 10 :   0.3125 0.1875 0.0625  plane waves:     264
 k-point 11 :   0.4375 0.1875 0.0625  plane waves:     261
 k-point 12 :  -0.4375 0.1875 0.0625  plane waves:     255
 k-point 13 :  -0.3125 0.1875 0.0625  plane waves:     260
 k-point 14 :  -0.1875 0.1875 0.0625  plane waves:     265
 k-point 15 :  -0.0625 0.1875 0.0625  plane waves:     270
 k-point 16 :   0.3125 0.3125 0.0625  plane waves:     261
 k-point 17 :   0.4375 0.3125 0.0625  plane waves:     259
 k-point 18 :  -0.4375 0.3125 0.0625  plane waves:     258
 k-point 19 :  -0.3125 0.3125 0.0625  plane waves:     262
 k-point 20 :  -0.1875 0.3125 0.0625  plane waves:     260
 k-point 21 :  -0.0625 0.3125 0.0625  plane waves:     262
 k-point 22 :   0.4375 0.4375 0.0625  plane waves:     251
 k-point 23 :  -0.4375 0.4375 0.0625  plane waves:     259
 k-point 24 :  -0.3125 0.4375 0.0625  plane waves:     260
 k-point 25 :  -0.1875 0.4375 0.0625  plane waves:     256
 k-point 26 :  -0.0625 0.4375 0.0625  plane waves:     258
 k-point 27 :  -0.4375-0.4375 0.0625  plane waves:     254
 k-point 28 :  -0.3125-0.4375 0.0625  plane waves:     256
 k-point 29 :  -0.1875-0.4375 0.0625  plane waves:     258
 k-point 30 :  -0.3125-0.3125 0.0625  plane waves:     259
 k-point 31 :  -0.1875-0.3125 0.0625  plane waves:     260
 k-point 32 :  -0.1875-0.1875 0.0625  plane waves:     267
 k-point 33 :   0.1875 0.1875 0.1875  plane waves:     271
 k-point 34 :   0.3125 0.1875 0.1875  plane waves:     268
 k-point 35 :   0.4375 0.1875 0.1875  plane waves:     265
 k-point 36 :  -0.4375 0.1875 0.1875  plane waves:     258
 k-point 37 :  -0.3125 0.1875 0.1875  plane waves:     259
 k-point 38 :  -0.1875 0.1875 0.1875  plane waves:     264
 k-point 39 :   0.3125 0.3125 0.1875  plane waves:     267
 k-point 40 :   0.4375 0.3125 0.1875  plane waves:     264
 k-point 41 :  -0.4375 0.3125 0.1875  plane waves:     259
 k-point 42 :  -0.3125 0.3125 0.1875  plane waves:     257
 k-point 43 :  -0.1875 0.3125 0.1875  plane waves:     256
 k-point 44 :   0.4375 0.4375 0.1875  plane waves:     259
 k-point 45 :  -0.4375 0.4375 0.1875  plane waves:     255
 k-point 46 :  -0.3125 0.4375 0.1875  plane waves:     258
 k-point 47 :  -0.1875 0.4375 0.1875  plane waves:     260
 k-point 48 :  -0.4375-0.4375 0.1875  plane waves:     261
 k-point 49 :  -0.3125-0.4375 0.1875  plane waves:     259
 k-point 50 :  -0.3125-0.3125 0.1875  plane waves:     256
 k-point 51 :   0.3125 0.3125 0.3125  plane waves:     256
 k-point 52 :   0.4375 0.3125 0.3125  plane waves:     259
 k-point 53 :  -0.4375 0.3125 0.3125  plane waves:     260
 k-point 54 :  -0.3125 0.3125 0.3125  plane waves:     263
 k-point 55 :   0.4375 0.4375 0.3125  plane waves:     262
 k-point 56 :  -0.4375 0.4375 0.3125  plane waves:     257
 k-point 57 :  -0.3125 0.4375 0.3125  plane waves:     260
 k-point 58 :  -0.4375-0.4375 0.3125  plane waves:     257
 k-point 59 :   0.4375 0.4375 0.4375  plane waves:     266
 k-point 60 :  -0.4375 0.4375 0.4375  plane waves:     256

 maximum number of plane-waves:       271
 maximum index in each direction: 
   IXMAX=    4   IYMAX=    4   IZMAX=    4
   IXMIN=   -4   IYMIN=   -4   IZMIN=   -4

 WARNING: aliasing errors must be expected set NGX to  18 to avoid them
 WARNING: aliasing errors must be expected set NGY to  18 to avoid them
 WARNING: aliasing errors must be expected set NGZ to  18 to avoid them
 aliasing errors are usually negligible using standard VASP settings
 and one can safely disregard these warnings

 total amount of memory used by VASP on root node    36072. kBytes
========================================================================

   base      :      30000. kBytes
   nonl-proj :       2345. kBytes
   grid      :       1216. kBytes
   one-center:         15. kBytes
   wavefun   :       2496. kBytes
 
     INWAV:  cpu time    0.00: real time    0.00
 Broyden mixing: mesh for mixing (old mesh)
   NGX =  9   NGY =  9   NGZ =  9
  (NGX  = 28   NGY  = 28   NGZ  = 28)
  gives a total of    729 points

 initial charge density was supplied:
 charge density of overlapping atoms calculated
 number of electron      10.0000000 magnetization 
 keeping initial charge density in first step


--------------------------------------------------------------------------------------------------------


 Maximum index for augmentation-charges         7395 (set IRDMAX)


--------------------------------------------------------------------------------------------------------


 First call to EWALD:  gamma=   0.682
 Maximum number of real-space cells 3x 3x 3
 Maximum number of reciprocal cells 3x 3x 3

    FEWALD:  cpu time    0.00: real time    0.00


----------------------------------------- Iteration    1(   1)  ---------------------------------------


    POTLOK:  cpu time    0.02: real time    0.02
    SETDIJ:  cpu time    0.01: real time    0.01
     EDDAV:  cpu time    0.62: real time    0.62
       DOS:  cpu time    0.00: real time    0.00
    --------------------------------------------
      LOOP:  cpu time    0.65: real time    0.65

 eigenvalue-minimisations  :  1120
 total energy-change (2. order) : 0.2609072E+02  (-0.4102839E+03)
 number of electron      10.0000000 magnetization 
 augmentation part       10.0000000 magnetization 

 Free energy of the ion-electron system (eV)
  ---------------------------------------------------
  alpha Z        PSCENC =        37.18571451
  Ewald energy   TEWEN  =      -800.56552902
  -Hartree energ DENC   =      -142.51965170
  -exchange      EXHF   =         0.00000000
  -V(xc)+E(xc)   XCENC  =       -29.65048286
  PAW double counting   =       806.73831454     -744.51602449
  entropy T*S    EENTRO =         0.00027633
  eigenvalues    EBANDS =        89.69197277
  atomic energy  EATOM  =       809.72612850
  ---------------------------------------------------
  free energy    TOTEN  =        26.09071858 eV

  energy without entropy =       26.09044225  energy(sigma->0) =       26.09062647


--------------------------------------------------------------------------------------------------------




----------------------------------------- Iteration    1(   2)  ---------------------------------------


     EDDAV:  cpu time    0.64: real time    0.65
       DOS:  cpu time    0.00: real time    0.00
    --------------------------------------------
      LOOP:  cpu time    0.65: real time    0.65

 eigenvalue-minimisations  :  1131
 total energy-change (2. order) :-0.3109643E+02  (-0.2990007E+02)
 number of electron      10.0000000 magnetization 
 augmentation part       10.0000000 magnetization 

 Free energy of the ion-electron system (eV)
  ---------------------------------------------------
  alpha Z        PSCENC =        37.18571451
  Ewald energy   TEWEN  =      -800.56552902
  -Hartree energ DENC   =      -142.51965170
  -exchange      EXHF   =         0.00000000
  -V(xc)+E(xc)   XCENC  =       -29.65048286
  PAW double counting   =       806.73831454     -744.51602449
  entropy T*S    EENTRO =        -0.01204471
  eigenvalues    EBANDS =        58.60786740
  atomic energy  EATOM  =       809.72612850
  ---------------------------------------------------
  free energy    TOTEN  =        -5.00570783 eV

  energy without entropy =       -4.99366312  energy(sigma->0) =       -5.00169292


--------------------------------------------------------------------------------------------------------




----------------------------------------- Iteration    1(   3)  ---------------------------------------


     EDDAV:  cpu time    0.75: real time    0.77
       DOS:  cpu time    0.00: real time    0.01
    --------------------------------------------
      LOOP:  cpu time    0.76: real time    0.81

 eigenvalue-minimisations  :  1319
 total energy-change (2. order) :-0.3052569E+00  (-0.3035804E+00)
 number of electron      10.0000000 magnetization 
 augmentation part       10.0000000 magnetization 

 Free energy of the ion-electron system (eV)
  ---------------------------------------------------
  alpha Z        PSCENC =        37.18571451
  Ewald energy   TEWEN  =      -800.56552902
  -Hartree energ DENC   =      -142.51965170
  -exchange      EXHF   =         0.00000000
  -V(xc)+E(xc)   XCENC  =       -29.65048286
  PAW double counting   =       806.73831454     -744.51602449
  entropy T*S    EENTRO =        -0.00974463
  eigenvalues    EBANDS =        58.30031044
  atomic energy  EATOM  =       809.72612850
  ---------------------------------------------------
  free energy    TOTEN  =        -5.31096470 eV

  energy without entropy =       -5.30122007  energy(sigma->0) =       -5.30771649


--------------------------------------------------------------------------------------------------------




----------------------------------------- Iteration    1(   4)  ---------------------------------------


     EDDAV:  cpu time    0.71: real time    0.71
       DOS:  cpu time    0.00: real time    0.01
    --------------------------------------------
      LOOP:  cpu time    0.71: real time    0.72

 eigenvalue-minimisations  :  1193
 total energy-change (2. order) :-0.1736585E-02  (-0.1736486E-02)
 number of electron      10.0000000 magnetization 
 augmentation part       10.0000000 magnetization 

 Free energy of the ion-electron system (eV)
  ---------------------------------------------------
  alpha Z        PSCENC =        37.18571451
  Ewald energy   TEWEN  =      -800.56552902
  -Hartree energ DENC   =      -142.51965170
  -exchange      EXHF   =         0.00000000
  -V(xc)+E(xc)   XCENC  =       -29.65048286
  PAW double counting   =       806.73831454     -744.51602449
  entropy T*S    EENTRO =        -0.00974121
  eigenvalues    EBANDS =        58.29857044
  atomic energy  EATOM  =       809.72612850
  ---------------------------------------------------
  free energy    TOTEN  =        -5.31270129 eV

  energy without entropy =       -5.30296008  energy(sigma->0) =       -5.30945422


--------------------------------------------------------------------------------------------------------




----------------------------------------- Iteration    1(   5)  ---------------------------------------


     EDDAV:  cpu time    0.74: real time    0.74
       DOS:  cpu time    0.01: real time    0.01
    CHARGE:  cpu time    0.06: real time    0.06
    MIXING:  cpu time    0.00: real time    0.00
    --------------------------------------------
      LOOP:  cpu time    0.80: real time    0.82

 eigenvalue-minimisations  :  1238
 total energy-change (2. order) :-0.2854903E-04  (-0.2854955E-04)
 number of electron      10.0000045 magnetization 
 augmentation part        4.0255499 magnetization 

 Broyden mixing:
  rms(total) = 0.47831E+00    rms(broyden)= 0.47826E+00
  rms(prec ) = 0.12684E+01
  weight for this iteration     100.00

 Free energy of the ion-electron system (eV)
  ---------------------------------------------------
  alpha Z        PSCENC =        37.18571451
  Ewald energy   TEWEN  =      -800.56552902
  -Hartree energ DENC   =      -142.51965170
  -exchange      EXHF   =         0.00000000
  -V(xc)+E(xc)   XCENC  =       -29.65048286
  PAW double counting   =       806.73831454     -744.51602449
  entropy T*S    EENTRO =        -0.00974117
  eigenvalues    EBANDS =        58.29854185
  atomic energy  EATOM  =       809.72612850
  ---------------------------------------------------
  free energy    TOTEN  =        -5.31272984 eV

  energy without entropy =       -5.30298867  energy(sigma->0) =       -5.30948278


--------------------------------------------------------------------------------------------------------




----------------------------------------- Iteration    1(   6)  ---------------------------------------


    POTLOK:  cpu time    0.03: real time    0.03
    SETDIJ:  cpu time    0.01: real time    0.02
     EDDAV:  cpu time    0.66: real time    0.66
       DOS:  cpu time    0.01: real time    0.01
    CHARGE:  cpu time    0.05: real time    0.05
    MIXING:  cpu time    0.00: real time    0.00
    --------------------------------------------
      LOOP:  cpu time    0.76: real time    0.80

 eigenvalue-minimisations  :  1096
 total energy-change (2. order) : 0.2141358E+00  (-0.1330890E+00)
 number of electron      10.0000047 magnetization 
 augmentation part        4.2275701 magnetization 

 Broyden mixing:
  rms(total) = 0.23571E+00    rms(broyden)= 0.23570E+00
  rms(prec ) = 0.24881E+00
  weight for this iteration     100.00

 eigenvalues of (default mixing * dielectric matrix)
  average eigenvalue GAMMA=   1.1807
  1.1807

 Free energy of the ion-electron system (eV)
  ---------------------------------------------------
  alpha Z        PSCENC =        37.18571451
  Ewald energy   TEWEN  =      -800.56552902
  -Hartree energ DENC   =      -134.45006531
  -exchange      EXHF   =         0.00000000
  -V(xc)+E(xc)   XCENC  =       -29.89306187
  PAW double counting   =       837.50462065     -776.28305017
  entropy T*S    EENTRO =        -0.00740150
  eigenvalues    EBANDS =        51.68405014
  atomic energy  EATOM  =       809.72612850
  ---------------------------------------------------
  free energy    TOTEN  =        -5.09859407 eV

  energy without entropy =       -5.09119257  energy(sigma->0) =       -5.09612691


--------------------------------------------------------------------------------------------------------




----------------------------------------- Iteration    1(   7)  ---------------------------------------


    POTLOK:  cpu time    0.02: real time    0.03
    SETDIJ:  cpu time    0.01: real time    0.01
     EDDAV:  cpu time    0.64: real time    0.64
       DOS:  cpu time    0.00: real time    0.01
    CHARGE:  cpu time    0.05: real time    0.05
    MIXING:  cpu time    0.00: real time    0.00
    --------------------------------------------
      LOOP:  cpu time    0.73: real time    0.84

 eigenvalue-minimisations  :  1134
 total energy-change (2. order) : 0.3484102E-02  (-0.3817975E-03)
 number of electron      10.0000047 magnetization 
 augmentation part        4.2200210 magnetization 

 Broyden mixing:
  rms(total) = 0.13552E+00    rms(broyden)= 0.13552E+00
  rms(prec ) = 0.14812E+00
  weight for this iteration     100.00

 eigenvalues of (default mixing * dielectric matrix)
  average eigenvalue GAMMA=   1.7034
  0.9592  2.4476

 Free energy of the ion-electron system (eV)
  ---------------------------------------------------
  alpha Z        PSCENC =        37.18571451
  Ewald energy   TEWEN  =      -800.56552902
  -Hartree energ DENC   =      -134.36510971
  -exchange      EXHF   =         0.00000000
  -V(xc)+E(xc)   XCENC  =       -29.89835754
  PAW double counting   =       861.57441345     -800.62724764
  entropy T*S    EENTRO =        -0.00741322
  eigenvalues    EBANDS =        51.88229070
  atomic energy  EATOM  =       809.72612850
  ---------------------------------------------------
  free energy    TOTEN  =        -5.09510997 eV

  energy without entropy =       -5.08769675  energy(sigma->0) =       -5.09263890


--------------------------------------------------------------------------------------------------------




----------------------------------------- Iteration    1(   8)  ---------------------------------------


    POTLOK:  cpu time    0.03: real time    0.03
    SETDIJ:  cpu time    0.01: real time    0.01
     EDDAV:  cpu time    0.64: real time    0.64
       DOS:  cpu time    0.00: real time    0.01
    CHARGE:  cpu time    0.05: real time    0.05
    MIXING:  cpu time    0.00: real time    0.00
    --------------------------------------------
      LOOP:  cpu time    0.74: real time    0.83

 eigenvalue-minimisations  :  1126
 total energy-change (2. order) : 0.1640436E-02  (-0.7079098E-04)
 number of electron      10.0000047 magnetization 
 augmentation part        4.2222179 magnetization 

 Broyden mixing:
  rms(total) = 0.20935E-02    rms(broyden)= 0.20925E-02
  rms(prec ) = 0.44450E-02
  weight for this iteration     100.00

 eigenvalues of (default mixing * dielectric matrix)
  average eigenvalue GAMMA=   1.5997
  2.5165  0.9577  1.3250

 Free energy of the ion-electron system (eV)
  ---------------------------------------------------
  alpha Z        PSCENC =        37.18571451
  Ewald energy   TEWEN  =      -800.56552902
  -Hartree energ DENC   =      -133.78909737
  -exchange      EXHF   =         0.00000000
  -V(xc)+E(xc)   XCENC  =       -29.91830318
  PAW double counting   =       896.00040587     -835.46205616
  entropy T*S    EENTRO =        -0.00734467
  eigenvalues    EBANDS =        51.73661199
  atomic energy  EATOM  =       809.72612850
  ---------------------------------------------------
  free energy    TOTEN  =        -5.09346954 eV

  energy without entropy =       -5.08612487  energy(sigma->0) =       -5.09102131


--------------------------------------------------------------------------------------------------------




----------------------------------------- Iteration    1(   9)  ---------------------------------------


    POTLOK:  cpu time    0.02: real time    0.02
    SETDIJ:  cpu time    0.01: real time    0.01
     EDDAV:  cpu time    0.41: real time    0.41
       DOS:  cpu time    0.00: real time    0.01
    --------------------------------------------
      LOOP:  cpu time    0.45: real time    0.45

 eigenvalue-minimisations  :   568
 total energy-change (2. order) :-0.1083307E-04  (-0.6540550E-06)
 number of electron      10.0000047 magnetization 
 augmentation part        4.2222179 magnetization 

 Free energy of the ion-electron system (eV)
  ---------------------------------------------------
  alpha Z        PSCENC =        37.18571451
  Ewald energy   TEWEN  =      -800.56552902
  -Hartree energ DENC   =      -133.78240583
  -exchange      EXHF   =         0.00000000
  -V(xc)+E(xc)   XCENC  =       -29.91873036
  PAW double counting   =       897.15495397     -836.61220000
  entropy T*S    EENTRO =        -0.00734087
  eigenvalues    EBANDS =        51.72592873
  atomic energy  EATOM  =       809.72612850
  ---------------------------------------------------
  free energy    TOTEN  =        -5.09348037 eV

  energy without entropy =       -5.08613950  energy(sigma->0) =       -5.09103341


--------------------------------------------------------------------------------------------------------




 average (electrostatic) potential at core
  the test charge radii are     1.1199
  (the norm of the test charge is              1.0000)
       1 -72.6862
 
 
 
 E-fermi :   7.1565     XC(G=0): -12.1326     alpha+bet :-14.0496


 k-point     1 :       0.0625    0.0625    0.0625
  band No.  band energies     occupation 
      1       1.3730      2.00000
      2       4.9657      2.00000
      3       5.0399      2.00000
      4       5.0399      2.00000
      5       6.2006      2.00000
      6       6.2006      2.00000
      7      24.1880      0.00000
      8      26.9863      0.00000
      9      28.0114      0.00000

 k-point     2 :       0.1875    0.0625    0.0625
  band No.  band energies     occupation 
      1       1.9882      2.00000
      2       4.7920      2.00000
      3       5.2035      2.00000
      4       5.2234      2.00000
      5       6.0400      2.00000
      6       6.2919      2.00000
      7      23.7933      0.00000
      8      24.9098      0.00000
      9      27.3775      0.00000

 k-point     3 :       0.3125    0.0625    0.0625
  band No.  band energies     occupation 
      1       3.0027      2.00000
      2       4.9763      2.00000
      3       5.2472      2.00000
      4       5.2688      2.00000
      5       6.2253      2.00000
      6       6.7210      2.00864
      7      19.5534      0.00000
      8      24.4102      0.00000
      9      26.9669      0.00000

 k-point     4 :       0.4375    0.0625    0.0625
  band No.  band energies     occupation 
      1       3.1802      2.00000
      2       5.0055      2.00000
      3       5.0931      2.00000
      4       6.3829      2.00000
      5       6.8073      2.03317
      6       7.8253     -0.00002
      7      15.2371      0.00000
      8      23.6556      0.00000
      9      25.8588      0.00000

 k-point     5 :      -0.4375    0.0625    0.0625
  band No.  band energies     occupation 
      1       3.1383      2.00000
      2       4.9231      2.00000
      3       5.0449      2.00000
      4       6.6972      2.00547
      5       7.1228      1.28049
      6       8.9351      0.00000
      7      13.3319      0.00000
      8      23.4371      0.00000
      9      25.9792      0.00000

 k-point     6 :      -0.3125    0.0625    0.0625
  band No.  band energies     occupation 
      1       3.1868      2.00000
      2       5.0468      2.00000
      3       5.1733      2.00000
      4       5.8454      2.00000
      5       6.9015      2.07018
      6       7.1429      1.11514
      7      16.5842      0.00000
      8      24.0238      0.00000
      9      26.2568      0.00000

 k-point     7 :      -0.1875    0.0625    0.0625
  band No.  band energies     occupation 
      1       2.7117      2.00000
      2       4.7723      2.00000
      3       5.2647      2.00000
      4       5.3032      2.00000
      5       6.1771      2.00000
      6       6.4457      2.00001
      7      21.0664      0.00000
      8      24.9031      0.00000
      9      27.0045      0.00000

 k-point     8 :      -0.0625    0.0625    0.0625
  band No.  band energies     occupation 
      1       1.6907      2.00000
      2       4.8346      2.00000
      3       5.1559      2.00000
      4       5.1601      2.00000
      5       6.0610      2.00000
      6       6.2716      2.00000
      7      24.3086      0.00000
      8      25.8643      0.00000
      9      27.4307      0.00000

 k-point     9 :       0.1875    0.1875    0.0625
  band No.  band energies     occupation 
      1       2.2818      2.00000
      2       4.5807      2.00000
      3       5.3744      2.00000
      4       5.3940      2.00000
      5       5.8769      2.00000
      6       6.4043      2.00000
      7      24.1221      0.00000
      8      25.1318      0.00000
      9      26.1678      0.00000

 k-point    10 :       0.3125    0.1875    0.0625
  band No.  band energies     occupation 
      1       3.2005      2.00000
      2       4.3546      2.00000
      3       5.2303      2.00000
      4       5.6835      2.00000
      5       6.1714      2.00000
      6       6.8164      2.03705
      7      21.4774      0.00000
      8      23.3682      0.00000
      9      25.8272      0.00000

 k-point    11 :       0.4375    0.1875    0.0625
  band No.  band energies     occupation 
      1       3.5757      2.00000
      2       4.7792      2.00000
      3       5.0378      2.00000
      4       5.5804      2.00000
      5       6.8851      2.06643
      6       8.2426      0.00000
      7      16.9414      0.00000
      8      22.8676      0.00000
      9      23.9730      0.00000

 k-point    12 :      -0.4375    0.1875    0.0625
  band No.  band energies     occupation 
      1       3.5343      2.00000
      2       4.6434      2.00000
      3       5.4064      2.00000
      4       5.7192      2.00000
      5       7.0741      1.63580
      6      10.5231      0.00000
      7      13.4330      0.00000
      8      22.3899      0.00000
      9      23.3477      0.00000

 k-point    13 :      -0.3125    0.1875    0.0625
  band No.  band energies     occupation 
      1       3.6207      2.00000
      2       4.7514      2.00000
      3       5.3279      2.00000
      4       5.5402      2.00000
      5       6.7267      2.00960
      6       9.1259      0.00000
      7      15.6123      0.00000
      8      21.7782      0.00000
      9      24.3824      0.00000

 k-point    14 :      -0.1875    0.1875    0.0625
  band No.  band energies     occupation 
      1       3.5255      2.00000
      2       4.5080      2.00000
      3       5.0859      2.00000
      4       5.6518      2.00000
      5       6.0467      2.00000
      6       7.3955     -0.07063
      7      19.9763      0.00000
      8      22.0159      0.00000
      9      26.1066      0.00000

 k-point    15 :      -0.0625    0.1875    0.0625
  band No.  band energies     occupation 
      1       2.5376      2.00000
      2       4.6135      2.00000
      3       5.3033      2.00000
      4       5.3933      2.00000
      5       5.9518      2.00000
      6       6.4907      2.00003
      7      22.6924      0.00000
      8      24.2772      0.00000
      9      26.9379      0.00000

 k-point    16 :       0.3125    0.3125    0.0625
  band No.  band energies     occupation 
      1       3.4503      2.00000
      2       3.9400      2.00000
      3       5.7452      2.00000
      4       6.1267      2.00000
      5       6.6283      2.00120
      6       6.7813      2.02336
      7      21.7997      0.00000
      8      22.8203      0.00000
      9      23.4813      0.00000

 k-point    17 :       0.4375    0.3125    0.0625
  band No.  band energies     occupation 
      1       3.6008      2.00000
      2       3.8221      2.00000
      3       5.6698      2.00000
      4       6.4473      2.00001
      5       6.9398      2.06355
      6       8.5011      0.00000
      7      19.0943      0.00000
      8      20.9032      0.00000
      9      21.1761      0.00000

 k-point    18 :      -0.4375    0.3125    0.0625
  band No.  band energies     occupation 
      1       3.6909      2.00000
      2       4.1635      2.00000
      3       5.3736      2.00000
      4       6.1742      2.00000
      5       7.1315      1.20958
      6      11.4681      0.00000
      7      15.0403      0.00000
      8      19.1339      0.00000
      9      21.2982      0.00000

 k-point    19 :      -0.3125    0.3125    0.0625
  band No.  band energies     occupation 
      1       4.0316      2.00000
      2       4.4912      2.00000
      3       4.9410      2.00000
      4       5.9817      2.00000
      5       6.7557      2.01578
      6      11.6330      0.00000
      7      15.3229      0.00000
      8      17.8122      0.00000
      9      22.7953      0.00000

 k-point    20 :      -0.1875    0.3125    0.0625
  band No.  band energies     occupation 
      1       4.0664      2.00000
      2       4.6201      2.00000
      3       4.7961      2.00000
      4       5.8050      2.00000
      5       6.3623      2.00000
      6       9.1551      0.00000
      7      17.4863      0.00000
      8      19.6105      0.00000
      9      24.4844      0.00000

 k-point    21 :      -0.0625    0.3125    0.0625
  band No.  band energies     occupation 
      1       3.3208      2.00000
      2       5.0126      2.00000
      3       5.1232      2.00000
      4       5.3656      2.00000
      5       6.4963      2.00003
      6       7.2686      0.19714
      7      18.1798      0.00000
      8      23.7138      0.00000
      9      25.7217      0.00000

 k-point    22 :       0.4375    0.4375    0.0625
  band No.  band energies     occupation 
      1       3.2483      2.00000
      2       3.4441      2.00000
      3       6.8365      2.04612
      4       6.8657      2.05929
      5       7.1675      0.90711
      6       9.2001      0.00000
      7      18.4132      0.00000
      8      19.5306      0.00000
      9      20.2352      0.00000

 k-point    23 :      -0.4375    0.4375    0.0625
  band No.  band energies     occupation 
      1       3.2975      2.00000
      2       3.5077      2.00000
      3       6.4626      2.00001
      4       6.8467      2.05087
      5       7.2922      0.09581
      6      11.4351      0.00000
      7      16.5282      0.00000
      8      17.8682      0.00000
      9      19.4909      0.00000

 k-point    24 :      -0.3125    0.4375    0.0625
  band No.  band energies     occupation 
      1       3.6380      2.00000
      2       4.0478      2.00000
      3       5.5458      2.00000
      4       6.3767      2.00000
      5       7.0949      1.49479
      6      13.2315      0.00000
      7      14.5784      0.00000
      8      16.9955      0.00000
      9      20.9308      0.00000

 k-point    25 :      -0.1875    0.4375    0.0625
  band No.  band energies     occupation 
      1       3.8273      2.00000
      2       4.4729      2.00000
      3       5.3117      2.00000
      4       5.7058      2.00000
      5       6.9491      2.05712
      6      11.5563      0.00000
      7      13.6766      0.00000
      8      20.1365      0.00000
      9      22.9484      0.00000

 k-point    26 :      -0.0625    0.4375    0.0625
  band No.  band energies     occupation 
      1       3.3022      2.00000
      2       4.8501      2.00000
      3       5.1880      2.00000
      4       6.1198      2.00000
      5       7.0231      1.89557
      6       9.0466      0.00000
      7      14.1545      0.00000
      8      23.2996      0.00000
      9      24.7607      0.00000

 k-point    27 :      -0.4375   -0.4375    0.0625
  band No.  band energies     occupation 
      1       3.1228      2.00000
      2       3.3329      2.00000
      3       7.0256      1.88576
      4       7.1136      1.35430
      5       7.3075      0.04467
      6      10.5624      0.00000
      7      16.5603      0.00000
      8      18.9468      0.00000
      9      19.6375      0.00000

 k-point    28 :      -0.3125   -0.4375    0.0625
  band No.  band energies     occupation 
      1       3.4229      2.00000
      2       3.6152      2.00000
      3       6.1359      2.00000
      4       6.7559      2.01583
      5       7.1471      1.07906
      6      10.0119      0.00000
      7      18.0093      0.00000
      8      18.8074      0.00000
      9      20.0116      0.00000

 k-point    29 :      -0.1875   -0.4375    0.0625
  band No.  band energies     occupation 
      1       3.6986      2.00000
      2       4.4212      2.00000
      3       5.1610      2.00000
      4       5.8741      2.00000
      5       7.0890      1.53682
      6       9.6985      0.00000
      7      15.8672      0.00000
      8      21.6089      0.00000
      9      21.9949      0.00000

 k-point    30 :      -0.3125   -0.3125    0.0625
  band No.  band energies     occupation 
      1       3.4280      2.00000
      2       3.6546      2.00000
      3       6.3369      2.00000
      4       6.5371      2.00011
      5       6.9810      2.01469
      6       7.7013     -0.00080
      7      20.4780      0.00000
      8      21.0090      0.00000
      9      21.3415      0.00000

 k-point    31 :      -0.1875   -0.3125    0.0625
  band No.  band energies     occupation 
      1       3.6305      2.00000
      2       4.0817      2.00000
      3       5.2671      2.00000
      4       6.0496      2.00000
      5       6.6150      2.00087
      6       7.3967     -0.07074
      7      20.2561      0.00000
      8      22.1520      0.00000
      9      23.6586      0.00000

 k-point    32 :      -0.1875   -0.1875    0.0625
  band No.  band energies     occupation 
      1       2.9972      2.00000
      2       4.2641      2.00000
      3       5.4810      2.00000
      4       5.7262      2.00000
      5       6.0232      2.00000
      6       6.5817      2.00037
      7      23.0999      0.00000
      8      24.5075      0.00000
      9      24.9975      0.00000

 k-point    33 :       0.1875    0.1875    0.1875
  band No.  band energies     occupation 
      1       2.2477      2.00000
      2       4.8292      2.00000
      3       5.2233      2.00000
      4       5.2233      2.00000
      5       6.1948      2.00000
      6       6.1948      2.00000
      7      22.4501      0.00000
      8      25.0614      0.00000
      9      28.5086      0.00000

 k-point    34 :       0.3125    0.1875    0.1875
  band No.  band energies     occupation 
      1       2.9952      2.00000
      2       4.6043      2.00000
      3       5.2587      2.00000
      4       5.4675      2.00000
      5       5.8871      2.00000
      6       6.8422      2.04877
      7      21.2792      0.00000
      8      23.1685      0.00000
      9      27.3347      0.00000

 k-point    35 :       0.4375    0.1875    0.1875
  band No.  band energies     occupation 
      1       3.8354      2.00000
      2       4.6241      2.00000
      3       5.0352      2.00000
      4       5.6110      2.00000
      5       6.0737      2.00000
      6       8.1548      0.00000
      7      18.6493      0.00000
      8      20.7429      0.00000
      9      25.9763      0.00000

 k-point    36 :      -0.4375    0.1875    0.1875
  band No.  band energies     occupation 
      1       3.7007      2.00000
      2       4.6469      2.00000
      3       5.4887      2.00000
      4       5.5161      2.00000
      5       6.7755      2.02146
      6      10.2260      0.00000
      7      14.5077      0.00000
      8      20.8344      0.00000
      9      25.0076      0.00000

 k-point    37 :      -0.3125    0.1875    0.1875
  band No.  band energies     occupation 
      1       3.5840      2.00000
      2       4.5990      2.00000
      3       5.4287      2.00000
      4       5.5561      2.00000
      5       7.1576      0.99103
      6      10.1164      0.00000
      7      14.3693      0.00000
      8      21.8958      0.00000
      9      23.7963      0.00000

 k-point    38 :      -0.1875    0.1875    0.1875
  band No.  band energies     occupation 
      1       3.5758      2.00000
      2       4.4026      2.00000
      3       5.1443      2.00000
      4       5.7256      2.00000
      5       6.9808      2.01498
      6       7.5741     -0.01191
      7      18.5019      0.00000
      8      23.5839      0.00000
      9      23.5937      0.00000

 k-point    39 :       0.3125    0.3125    0.1875
  band No.  band energies     occupation 
      1       3.2395      2.00000
      2       4.6256      2.00000
      3       5.1556      2.00000
      4       5.4702      2.00000
      5       6.6202      2.00099
      6       6.7272      2.00968
      7      19.7481      0.00000
      8      24.6234      0.00000
      9      25.2386      0.00000

 k-point    40 :       0.4375    0.3125    0.1875
  band No.  band energies     occupation 
      1       3.8891      2.00000
      2       4.3789      2.00000
      3       4.8644      2.00000
      4       5.9656      2.00000
      5       6.4353      2.00000
      6       8.2250      0.00000
      7      18.7813      0.00000
      8      20.8674      0.00000
      9      23.9530      0.00000

 k-point    41 :      -0.4375    0.3125    0.1875
  band No.  band energies     occupation 
      1       4.2137      2.00000
      2       4.3874      2.00000
      3       4.6904      2.00000
      4       6.0732      2.00000
      5       6.7281      2.00984
      6      10.4986      0.00000
      7      16.4835      0.00000
      8      18.6922      0.00000
      9      22.0608      0.00000

 k-point    42 :      -0.3125    0.3125    0.1875
  band No.  band energies     occupation 
      1       3.9922      2.00000
      2       4.2952      2.00000
      3       5.0400      2.00000
      4       5.9935      2.00000
      5       7.0478      1.78614
      6      12.3753      0.00000
      7      13.9004      0.00000
      8      19.6249      0.00000
      9      20.5750      0.00000

 k-point    43 :      -0.1875    0.3125    0.1875
  band No.  band energies     occupation 
      1       3.8873      2.00000
      2       4.1486      2.00000
      3       5.0324      2.00000
      4       6.3072      2.00000
      5       6.7980      2.02942
      6       9.4673      0.00000
      7      17.7220      0.00000
      8      19.8197      0.00000
      9      21.4957      0.00000

 k-point    44 :       0.4375    0.4375    0.1875
  band No.  band energies     occupation 
      1       3.6002      2.00000
      2       4.0958      2.00000
      3       5.4776      2.00000
      4       6.0453      2.00000
      5       7.1547      1.01488
      6       8.9415      0.00000
      7      17.3749      0.00000
      8      21.2903      0.00000
      9      22.2381      0.00000

 k-point    45 :      -0.4375    0.4375    0.1875
  band No.  band energies     occupation 
      1       3.7292      2.00000
      2       3.9363      2.00000
      3       5.3870      2.00000
      4       6.5037      2.00004
      5       7.0899      1.53060
      6      11.0701      0.00000
      7      16.8748      0.00000
      8      18.7050      0.00000
      9      19.3899      0.00000

 k-point    46 :      -0.3125    0.4375    0.1875
  band No.  band energies     occupation 
      1       3.8939      2.00000
      2       4.3012      2.00000
      3       4.9202      2.00000
      4       6.2220      2.00000
      5       7.2849      0.12405
      6      13.9857      0.00000
      7      15.2395      0.00000
      8      16.9333      0.00000
      9      18.1716      0.00000

 k-point    47 :      -0.1875    0.4375    0.1875
  band No.  band energies     occupation 
      1       4.0554      2.00000
      2       4.3085      2.00000
      3       4.7922      2.00000
      4       6.2101      2.00000
      5       7.0649      1.69250
      6      12.1812      0.00000
      7      15.6954      0.00000
      8      17.9959      0.00000
      9      19.6349      0.00000

 k-point    48 :      -0.4375   -0.4375    0.1875
  band No.  band energies     occupation 
      1       3.4012      2.00000
      2       3.7192      2.00000
      3       6.1436      2.00000
      4       6.6397      2.00158
      5       7.1755      0.83985
      6      12.1438      0.00000
      7      15.8969      0.00000
      8      16.9381      0.00000
      9      20.7721      0.00000

 k-point    49 :      -0.3125   -0.4375    0.1875
  band No.  band energies     occupation 
      1       3.6005      2.00000
      2       3.8412      2.00000
      3       5.6602      2.00000
      4       6.5186      2.00006
      5       7.2865      0.11763
      6      12.6658      0.00000
      7      16.2362      0.00000
      8      17.0335      0.00000
      9      18.7903      0.00000

 k-point    50 :      -0.3125   -0.3125    0.1875
  band No.  band energies     occupation 
      1       3.4931      2.00000
      2       3.8450      2.00000
      3       5.8846      2.00000
      4       6.3807      2.00000
      5       7.2144      0.53206
      6      10.5931      0.00000
      7      16.4740      0.00000
      8      18.8403      0.00000
      9      21.2739      0.00000

 k-point    51 :       0.3125    0.3125    0.3125
  band No.  band energies     occupation 
      1       3.0592      2.00000
      2       5.1603      2.00000
      3       5.1603      2.00000
      4       5.6391      2.00000
      5       6.5895      2.00046
      6       6.5895      2.00046
      7      17.9764      0.00000
      8      24.3623      0.00000
      9      27.9803      0.00000

 k-point    52 :       0.4375    0.3125    0.3125
  band No.  band energies     occupation 
      1       3.4475      2.00000
      2       4.9426      2.00000
      3       5.3090      2.00000
      4       5.4831      2.00000
      5       6.4565      2.00001
      6       8.0398      0.00000
      7      16.8034      0.00000
      8      22.6986      0.00000
      9      25.4893      0.00000

 k-point    53 :      -0.4375    0.3125    0.3125
  band No.  band energies     occupation 
      1       4.0730      2.00000
      2       4.6157      2.00000
      3       4.9504      2.00000
      4       5.7810      2.00000
      5       6.4869      2.00002
      6      10.2585      0.00000
      7      16.3443      0.00000
      8      18.5619      0.00000
      9      25.3465      0.00000

 k-point    54 :      -0.3125    0.3125    0.3125
  band No.  band energies     occupation 
      1       3.7773      2.00000
      2       4.3381      2.00000
      3       5.2791      2.00000
      4       6.1522      2.00000
      5       6.8839      2.06606
      6      12.9489      0.00000
      7      14.2259      0.00000
      8      17.2655      0.00000
      9      22.7722      0.00000

 k-point    55 :       0.4375    0.4375    0.3125
  band No.  band energies     occupation 
      1       3.3758      2.00000
      2       4.8490      2.00000
      3       5.3111      2.00000
      4       5.6207      2.00000
      5       7.1045      1.42392
      6       8.4617      0.00000
      7      15.3739      0.00000
      8      23.5594      0.00000
      9      24.8492      0.00000

 k-point    56 :      -0.4375    0.4375    0.3125
  band No.  band energies     occupation 
      1       3.8275      2.00000
      2       4.4867      2.00000
      3       5.1879      2.00000
      4       5.7461      2.00000
      5       6.9583      2.04837
      6      10.6014      0.00000
      7      14.6184      0.00000
      8      21.0174      0.00000
      9      22.1691      0.00000

 k-point    57 :      -0.3125    0.4375    0.3125
  band No.  band energies     occupation 
      1       3.9728      2.00000
      2       4.3355      2.00000
      3       4.9358      2.00000
      4       6.1515      2.00000
      5       7.0645      1.69497
      6      13.3163      0.00000
      7      14.4880      0.00000
      8      17.3476      0.00000
      9      20.2957      0.00000

 k-point    58 :      -0.4375   -0.4375    0.3125
  band No.  band energies     occupation 
      1       3.7346      2.00000
      2       4.4048      2.00000
      3       5.3214      2.00000
      4       5.8684      2.00000
      5       7.0590      1.72608
      6      11.9591      0.00000
      7      13.6768      0.00000
      8      19.5132      0.00000
      9      23.1082      0.00000

 k-point    59 :       0.4375    0.4375    0.4375
  band No.  band energies     occupation 
      1       3.0763      2.00000
      2       5.0013      2.00000
      3       5.0013      2.00000
      4       7.0461      1.79439
      5       7.0461      1.79439
      6       7.8990      0.00000
      7      14.0433      0.00000
      8      23.5465      0.00000
      9      26.7090      0.00000

 k-point    60 :      -0.4375    0.4375    0.4375
  band No.  band energies     occupation 
      1       3.3560      2.00000
      2       4.7858      2.00000
      3       5.2164      2.00000
      4       6.1248      2.00000
      5       7.0219      1.90005
      6       9.8716      0.00000
      7      13.3879      0.00000
      8      22.8066      0.00000
      9      24.8753      0.00000


--------------------------------------------------------------------------------------------------------


 soft charge-density along one line, spin component           1
         0         1         2         3         4         5         6         7         8         9
x     5.7778    0.0000    1.0020    0.0000   -0.3023    0.0000   -0.0300    0.0000    0.0168    0.0000
x     0.0015    0.0000    0.0000    0.0000    0.0000    0.0000
y     5.7778    0.0000    1.0020    0.0000   -0.3023    0.0000   -0.0300    0.0000    0.0168    0.0000
y     0.0015    0.0000    0.0000    0.0000    0.0000    0.0000
z     5.7778    0.0000    1.0020    0.0000   -0.3023    0.0000   -0.0300    0.0000    0.0168    0.0000
z     0.0015    0.0000    0.0000    0.0000    0.0000    0.0000
 total charge-density along one line
x    10.0000    0.0000    3.9535    0.0000    0.5803    0.0000   -0.0040    0.0000    0.0045    0.0000
x     0.0037    0.0000   -0.0010    0.0000    0.0004    0.0000   -0.0002    0.0000    0.0001    0.0000
x    -0.0001    0.0000    0.0000    0.0000    0.0000    0.0000    0.0000    0.0000    0.0000    0.0000
y    10.0000    0.0000    3.9535    0.0000    0.5803    0.0000   -0.0040    0.0000    0.0045    0.0000
y     0.0037    0.0000   -0.0010    0.0000    0.0004    0.0000   -0.0002    0.0000    0.0001    0.0000
y    -0.0001    0.0000    0.0000    0.0000    0.0000    0.0000    0.0000    0.0000    0.0000    0.0000
z    10.0000    0.0000    3.9535    0.0000    0.5803    0.0000   -0.0040    0.0000    0.0045    0.0000
z     0.0037    0.0000   -0.0010    0.0000    0.0004    0.0000   -0.0002    0.0000    0.0001    0.0000
z    -0.0001    0.0000    0.0000    0.0000    0.0000    0.0000    0.0000    0.0000    0.0000    0.0000
 
 pseudopotential strength for first ion, spin component:           1
 -3.177   0.000   0.000  -0.014   0.000  -3.381   0.000   0.000
  0.000  -3.167   0.000   0.000  -0.014   0.000  -3.372   0.000
  0.000   0.000  -3.187   0.000   0.000   0.000   0.000  -3.390
 -0.014   0.000   0.000  -3.167   0.000  -0.013   0.000   0.000
  0.000  -0.014   0.000   0.000  -3.177   0.000  -0.013   0.000
 -3.381   0.000   0.000  -0.013   0.000  -3.553   0.000   0.000
  0.000  -3.372   0.000   0.000  -0.013   0.000  -3.544   0.000
  0.000   0.000  -3.390   0.000   0.000   0.000   0.000  -3.562
 -0.013   0.000   0.000  -3.372   0.000  -0.013   0.000   0.000
  0.000  -0.013   0.000   0.000  -3.381   0.000  -0.013   0.000
  0.000   0.000   0.000   0.000   0.000   0.000   0.000   0.000
  0.000   0.000   0.000   0.000   0.000   0.000   0.000   0.000
  0.000   0.000   0.000   0.000   0.000   0.000   0.000   0.000
  0.000   0.000   0.000   0.000   0.000   0.000   0.000   0.000
  0.000   0.000   0.000   0.000   0.000   0.000   0.000   0.000
  0.000   0.000   0.000   0.000   0.000   0.000   0.000   0.000
  0.000   0.000   0.000   0.000   0.000   0.000   0.000   0.000
  0.000   0.000   0.000   0.000   0.000   0.000   0.000   0.000
 total augmentation occupancy for first ion, spin component:           1
  2.528   0.000   0.000  -0.217   0.000  -1.044   0.000   0.000   0.048   0.000   0.000   0.000   0.000   0.000   0.000   0.000
  0.000   2.681   0.000   0.000  -0.217   0.000  -1.078   0.000   0.000   0.048   0.000   0.000   0.000   0.000   0.000   0.000
  0.000   0.000   2.375   0.000   0.000   0.000   0.000  -1.010   0.000   0.000   0.000   0.000   0.000   0.000   0.000   0.000
 -0.217   0.000   0.000   2.681   0.000   0.048   0.000   0.000  -1.078   0.000   0.000   0.000   0.000   0.000   0.000   0.000
  0.000  -0.217   0.000   0.000   2.528   0.000   0.048   0.000   0.000  -1.044   0.000   0.000   0.000   0.000   0.000   0.000
 -1.044   0.000   0.000   0.048   0.000   1.340   0.000   0.000   0.067   0.000   0.000   0.000   0.000   0.000   0.000   0.000
  0.000  -1.078   0.000   0.000   0.048   0.000   1.293   0.000   0.000   0.067   0.000   0.000   0.000   0.000   0.000   0.000
  0.000   0.000  -1.010   0.000   0.000   0.000   0.000   1.387   0.000   0.000   0.000   0.000   0.000   0.000   0.000   0.000
  0.048   0.000   0.000  -1.078   0.000   0.067   0.000   0.000   1.293   0.000   0.000   0.000   0.000   0.000   0.000   0.000
  0.000   0.048   0.000   0.000  -1.044   0.000   0.067   0.000   0.000   1.340   0.000   0.000   0.000   0.000   0.000   0.000
  0.000   0.000   0.000   0.000   0.000   0.000   0.000   0.000   0.000   0.000   1.691  -0.252   0.000   0.000   0.000   0.000
  0.000   0.000   0.000   0.000   0.000   0.000   0.000   0.000   0.000   0.000  -0.252   0.039   0.000   0.000   0.000   0.000
  0.000   0.000   0.000   0.000   0.000   0.000   0.000   0.000   0.000   0.000   0.000   0.000   0.170   0.000   0.000  -0.010
  0.000   0.000   0.000   0.000   0.000   0.000   0.000   0.000   0.000   0.000   0.000   0.000   0.000   0.170   0.000   0.000
  0.000   0.000   0.000   0.000   0.000   0.000   0.000   0.000   0.000   0.000   0.000   0.000   0.000   0.000   0.170   0.000
  0.000   0.000   0.000   0.000   0.000   0.000   0.000   0.000   0.000   0.000   0.000   0.000  -0.010   0.000   0.000   0.001
  0.000   0.000   0.000   0.000   0.000   0.000   0.000   0.000   0.000   0.000   0.000   0.000   0.000  -0.010   0.000   0.000
  0.000   0.000   0.000   0.000   0.000   0.000   0.000   0.000   0.000   0.000   0.000   0.000   0.000   0.000  -0.010   0.000


------------------------ aborting loop because EDIFF is reached ----------------------------------------


    CHARGE:  cpu time    0.05: real time    0.05
    FORLOC:  cpu time    0.00: real time    0.00
    FORNL :  cpu time    0.08: real time    0.08
    STRESS:  cpu time    0.26: real time    0.26
    FORCOR:  cpu time    0.03: real time    0.03
    FORHAR:  cpu time    0.01: real time    0.01
    MIXING:  cpu time    0.00: real time    0.00
    OFIELD:  cpu time    0.00: real time    0.00

  FORCE on cell =-STRESS in cart. coord.  units (eV):
  Direction    XX          YY          ZZ          XY          YZ          ZX
  --------------------------------------------------------------------------------------
  Alpha Z    37.18571    37.18571    37.18571
  Ewald    -266.85518  -266.85518  -266.85518     0.00000     0.00000     0.00000
  Hartree    44.59915    44.59915    44.59915     0.00000     0.00000     0.00000
  E(xc)     -52.01038   -52.01038   -52.01038     0.00000     0.00000     0.00000
  Local      32.41416    32.41406    32.41403     0.00009     0.00004     0.00007
  n-local    -9.69246    -7.82554    -4.11377     0.47449    -0.18177     2.41315
  augment    74.41232    74.41245    74.41248    -0.00011    -0.00004    -0.00008
  Kinetic   134.59744   134.72937   137.66233     0.27854    -0.53555     1.95042
  Fock        0.00000     0.00000     0.00000     0.00000     0.00000     0.00000
  -------------------------------------------------------------------------------------
  Total      -1.80175    -1.80175    -1.80175     0.00000     0.00000     0.00000
  in kB    -164.70197  -164.70197  -164.70197     0.00000     0.00000     0.00000
  external pressure =     -164.70 kB  Pullay stress =        0.00 kB


 VOLUME and BASIS-vectors are now :
 -----------------------------------------------------------------------------
  energy-cutoff  :      350.00
  volume of cell :       17.53
      direct lattice vectors                 reciprocal lattice vectors
     2.915684102  0.000000000  0.000000000     0.342972683 -0.198015371 -0.140018012
     1.457842051  2.525056501  0.000000000     0.000000000  0.396030742 -0.140018012
     1.457842051  0.841685500  2.380646100     0.000000000  0.000000000  0.420054035

  length of vectors
     2.915684102  2.915684102  2.915684102     0.420054035  0.420054035  0.420054035


 FORCES acting on ions
    electron-ion (+dipol)            ewald-force                    non-local-force                 convergence-correction
 -----------------------------------------------------------------------------------------------
   -.366E-13 0.300E-14 -.421E-14   0.221E-14 0.107E-14 -.104E-14   -.132E-22 -.265E-22 0.000E+00   -.253E-13 -.120E-13 0.846E-14
 -----------------------------------------------------------------------------------------------
   -.366E-13 0.300E-14 -.421E-14   0.221E-14 0.107E-14 -.104E-14   -.132E-22 -.265E-22 0.000E+00   -.253E-13 -.120E-13 0.846E-14
 
 
 POSITION                                       TOTAL-FORCE (eV/Angst)
 -----------------------------------------------------------------------------------
      0.00000      0.00000      0.00000         0.000000      0.000000      0.000000
 -----------------------------------------------------------------------------------
    total drift:                                0.000000      0.000000      0.000000


--------------------------------------------------------------------------------------------------------



  FREE ENERGIE OF THE ION-ELECTRON SYSTEM (eV)
  ---------------------------------------------------
  free  energy   TOTEN  =        -5.09348037 eV

  energy  without entropy=       -5.08613950  energy(sigma->0) =       -5.09103341
 


--------------------------------------------------------------------------------------------------------


    POTLOK:  cpu time    0.03: real time    0.03


--------------------------------------------------------------------------------------------------------


 stress matrix after NEB project (eV)
     -1.80175      0.00000      0.00000
      0.00000     -1.80175      0.00000
      0.00000      0.00000     -1.80175
  FORCES: max atom, RMS     0.000000    0.000000
  FORCE total and by dimension    0.000000    0.000000
  Stress total and by dimension    3.120723    1.801750


--------------------------------------------------------------------------------------------------------


  
 reached required accuracy - stopping structural energy minimisation
 writing wavefunctions
     LOOP+:  cpu time    6.80: real time    7.21
    4ORBIT:  cpu time    0.00: real time    0.00

 total amount of memory used by VASP on root node    36072. kBytes
========================================================================

   base      :      30000. kBytes
   nonl-proj :       2345. kBytes
   grid      :       1216. kBytes
   one-center:         15. kBytes
   wavefun   :       2496. kBytes
 
  
  
 General timing and accounting informations for this job:
 ========================================================
  
                  Total CPU time used (sec):        7.208
                            User time (sec):        7.125
                          System time (sec):        0.083
                         Elapsed time (sec):        7.644
  
                   Maximum memory used (kb):           0.
                   Average memory used (kb):           0.
  
                          Minor page faults:         5581
                          Major page faults:            0
                 Voluntary context switches:         2421
