<?xml version="1.0" encoding="ISO-8859-1"?>
<modeling>
 <generator>
  <i name="program" type="string">vasp </i>
  <i name="version" type="string">5.3.5  </i>
  <i name="subversion" type="string">31Mar14 (build Jan 09 2015 16:57:47) complex                          serial </i>
  <i name="platform" type="string">LinuxIFC </i>
  <i name="date" type="string">2015 03 24 </i>
  <i name="time" type="string">14:25:57 </i>
 </generator>
 <incar>
  <i type="string" name="PREC">normal</i>
  <i type="int" name="IBRION">     2</i>
  <i type="int" name="NSW">    30</i>
  <i type="int" name="ISIF">     2</i>
  <i name="ENCUT">    350.00000000</i>
 </incar>
 <kpoints>
  <generation param="Monkhorst-Pack">
   <v type="int" name="divisions">       8        8        8 </v>
   <v name="usershift">      0.00000000       0.00000000       0.00000000 </v>
   <v name="genvec1">      0.12500000       0.00000000       0.00000000 </v>
   <v name="genvec2">      0.00000000       0.12500000       0.00000000 </v>
   <v name="genvec3">      0.00000000       0.00000000       0.12500000 </v>
   <v name="shift">      0.50000000       0.50000000       0.50000000 </v>
  </generation>
  <varray name="kpointlist" >
   <v>       0.06250000       0.06250000       0.06250000 </v>
   <v>       0.18750000       0.06250000       0.06250000 </v>
   <v>       0.31250000       0.06250000       0.06250000 </v>
   <v>       0.43750000       0.06250000       0.06250000 </v>
   <v>      -0.43750000       0.06250000       0.06250000 </v>
   <v>      -0.31250000       0.06250000       0.06250000 </v>
   <v>      -0.18750000       0.06250000       0.06250000 </v>
   <v>      -0.06250000       0.06250000       0.06250000 </v>
   <v>       0.18750000       0.18750000       0.06250000 </v>
   <v>       0.31250000       0.18750000       0.06250000 </v>
   <v>       0.43750000       0.18750000       0.06250000 </v>
   <v>      -0.43750000       0.18750000       0.06250000 </v>
   <v>      -0.31250000       0.18750000       0.06250000 </v>
   <v>      -0.18750000       0.18750000       0.06250000 </v>
   <v>      -0.06250000       0.18750000       0.06250000 </v>
   <v>       0.31250000       0.31250000       0.06250000 </v>
   <v>       0.43750000       0.31250000       0.06250000 </v>
   <v>      -0.43750000       0.31250000       0.06250000 </v>
   <v>      -0.31250000       0.31250000       0.06250000 </v>
   <v>      -0.18750000       0.31250000       0.06250000 </v>
   <v>      -0.06250000       0.31250000       0.06250000 </v>
   <v>       0.43750000       0.43750000       0.06250000 </v>
   <v>      -0.43750000       0.43750000       0.06250000 </v>
   <v>      -0.31250000       0.43750000       0.06250000 </v>
   <v>      -0.18750000       0.43750000       0.06250000 </v>
   <v>      -0.06250000       0.43750000       0.06250000 </v>
   <v>      -0.43750000      -0.43750000       0.06250000 </v>
   <v>      -0.31250000      -0.43750000       0.06250000 </v>
   <v>      -0.18750000      -0.43750000       0.06250000 </v>
   <v>      -0.31250000      -0.31250000       0.06250000 </v>
   <v>      -0.18750000      -0.31250000       0.06250000 </v>
   <v>      -0.18750000      -0.18750000       0.06250000 </v>
   <v>       0.18750000       0.18750000       0.18750000 </v>
   <v>       0.31250000       0.18750000       0.18750000 </v>
   <v>       0.43750000       0.18750000       0.18750000 </v>
   <v>      -0.43750000       0.18750000       0.18750000 </v>
   <v>      -0.31250000       0.18750000       0.18750000 </v>
   <v>      -0.18750000       0.18750000       0.18750000 </v>
   <v>       0.31250000       0.31250000       0.18750000 </v>
   <v>       0.43750000       0.31250000       0.18750000 </v>
   <v>      -0.43750000       0.31250000       0.18750000 </v>
   <v>      -0.31250000       0.31250000       0.18750000 </v>
   <v>      -0.18750000       0.31250000       0.18750000 </v>
   <v>       0.43750000       0.43750000       0.18750000 </v>
   <v>      -0.43750000       0.43750000       0.18750000 </v>
   <v>      -0.31250000       0.43750000       0.18750000 </v>
   <v>      -0.18750000       0.43750000       0.18750000 </v>
   <v>      -0.43750000      -0.43750000       0.18750000 </v>
   <v>      -0.31250000      -0.43750000       0.18750000 </v>
   <v>      -0.31250000      -0.31250000       0.18750000 </v>
   <v>       0.31250000       0.31250000       0.31250000 </v>
   <v>       0.43750000       0.31250000       0.31250000 </v>
   <v>      -0.43750000       0.31250000       0.31250000 </v>
   <v>      -0.31250000       0.31250000       0.31250000 </v>
   <v>       0.43750000       0.43750000       0.31250000 </v>
   <v>      -0.43750000       0.43750000       0.31250000 </v>
   <v>      -0.31250000       0.43750000       0.31250000 </v>
   <v>      -0.43750000      -0.43750000       0.31250000 </v>
   <v>       0.43750000       0.43750000       0.43750000 </v>
   <v>      -0.43750000       0.43750000       0.43750000 </v>
  </varray>
  <varray name="weights" >
   <v>       0.00390625 </v>
   <v>       0.01171875 </v>
   <v>       0.01171875 </v>
   <v>       0.01171875 </v>
   <v>       0.01171875 </v>
   <v>       0.01171875 </v>
   <v>       0.01171875 </v>
   <v>       0.01171875 </v>
   <v>       0.01171875 </v>
   <v>       0.02343750 </v>
   <v>       0.02343750 </v>
   <v>       0.02343750 </v>
   <v>       0.02343750 </v>
   <v>       0.02343750 </v>
   <v>       0.02343750 </v>
   <v>       0.01171875 </v>
   <v>       0.02343750 </v>
   <v>       0.02343750 </v>
   <v>       0.02343750 </v>
   <v>       0.02343750 </v>
   <v>       0.02343750 </v>
   <v>       0.01171875 </v>
   <v>       0.02343750 </v>
   <v>       0.02343750 </v>
   <v>       0.02343750 </v>
   <v>       0.02343750 </v>
   <v>       0.01171875 </v>
   <v>       0.02343750 </v>
   <v>       0.02343750 </v>
   <v>       0.01171875 </v>
   <v>       0.02343750 </v>
   <v>       0.01171875 </v>
   <v>       0.00390625 </v>
   <v>       0.01171875 </v>
   <v>       0.01171875 </v>
   <v>       0.01171875 </v>
   <v>       0.01171875 </v>
   <v>       0.01171875 </v>
   <v>       0.01171875 </v>
   <v>       0.02343750 </v>
   <v>       0.02343750 </v>
   <v>       0.02343750 </v>
   <v>       0.02343750 </v>
   <v>       0.01171875 </v>
   <v>       0.02343750 </v>
   <v>       0.02343750 </v>
   <v>       0.02343750 </v>
   <v>       0.01171875 </v>
   <v>       0.02343750 </v>
   <v>       0.01171875 </v>
   <v>       0.00390625 </v>
   <v>       0.01171875 </v>
   <v>       0.01171875 </v>
   <v>       0.01171875 </v>
   <v>       0.01171875 </v>
   <v>       0.02343750 </v>
   <v>       0.02343750 </v>
   <v>       0.01171875 </v>
   <v>       0.00390625 </v>
   <v>       0.01171875 </v>
  </varray>
 </kpoints>
 <parameters>
  <separator name="general" >
   <i type="string" name="SYSTEM">unknown system</i>
   <i type="logical" name="LCOMPAT"> F  </i>
  </separator>
  <separator name="electronic" >
   <i type="string" name="PREC">normal</i>
   <i name="ENMAX">    350.00000000</i>
   <i name="ENAUG">    416.23000000</i>
   <i name="EDIFF">      0.00010000</i>
   <i type="int" name="IALGO">    38</i>
   <i type="int" name="IWAVPR">    11</i>
   <i type="int" name="NBANDS">     9</i>
   <i name="NELECT">     10.00000000</i>
   <i type="int" name="TURBO">     0</i>
   <i type="int" name="IRESTART">     0</i>
   <i type="int" name="NREBOOT">     0</i>
   <i type="int" name="NMIN">     0</i>
   <i name="EREF">      0.00000000</i>
   <separator name="electronic smearing" >
    <i type="int" name="ISMEAR">     1</i>
    <i name="SIGMA">      0.20000000</i>
    <i name="KSPACING">      0.50000000</i>
    <i type="logical" name="KGAMMA"> T  </i>
   </separator>
   <separator name="electronic projectors" >
    <i type="logical" name="LREAL"> F  </i>
    <v name="ROPT">      0.00000000</v>
    <i type="int" name="LMAXPAW">  -100</i>
    <i type="int" name="LMAXMIX">     2</i>
    <i type="logical" name="NLSPLINE"> F  </i>
   </separator>
   <separator name="electronic startup" >
    <i type="int" name="ISTART">     0</i>
    <i type="int" name="ICHARG">     2</i>
    <i type="int" name="INIWAV">     1</i>
   </separator>
   <separator name="electronic spin" >
    <i type="int" name="ISPIN">     1</i>
    <i type="logical" name="LNONCOLLINEAR"> F  </i>
    <v name="MAGMOM">      1.00000000</v>
    <i name="NUPDOWN">     -1.00000000</i>
    <i type="logical" name="LSORBIT"> F  </i>
    <v name="SAXIS">      0.00000000      0.00000000      1.00000000</v>
    <i type="logical" name="LSPIRAL"> F  </i>
    <v name="QSPIRAL">      0.00000000      0.00000000      0.00000000</v>
    <i type="logical" name="LZEROZ"> F  </i>
   </separator>
   <separator name="electronic exchange-correlation" >
    <i type="logical" name="LASPH"> F  </i>
    <i type="logical" name="LMETAGGA"> F  </i>
   </separator>
   <separator name="electronic convergence" >
    <i type="int" name="NELM">    60</i>
    <i type="int" name="NELMDL">    -5</i>
    <i type="int" name="NELMIN">     2</i>
    <i name="ENINI">    350.00000000</i>
    <separator name="electronic convergence detail" >
     <i type="logical" name="LDIAG"> T  </i>
     <i type="logical" name="LSUBROT"> F  </i>
     <i name="WEIMIN">      0.00100000</i>
     <i name="EBREAK">      0.00000278</i>
     <i name="DEPER">      0.30000000</i>
     <i type="int" name="NRMM">     4</i>
     <i name="TIME">      0.40000000</i>
    </separator>
   </separator>
   <separator name="electronic mixer" >
    <i name="AMIX">      0.40000000</i>
    <i name="BMIX">      1.00000000</i>
    <i name="AMIN">      0.10000000</i>
    <i name="AMIX_MAG">      1.60000000</i>
    <i name="BMIX_MAG">      1.00000000</i>
    <separator name="electronic mixer details" >
     <i type="int" name="IMIX">     4</i>
     <i type="int" name="MAXMIX">   -45</i>
     <i name="WC">    100.00000000</i>
     <i type="int" name="INIMIX">     1</i>
     <i type="int" name="MIXPRE">     1</i>
     <i type="int" name="MREMOVE">     5</i>
    </separator>
   </separator>
   <separator name="electronic dipolcorrection" >
    <i type="logical" name="LDIPOL"> F  </i>
    <i type="logical" name="LMONO"> F  </i>
    <i type="int" name="IDIPOL">     0</i>
    <i name="EPSILON">      1.00000000</i>
    <v name="DIPOL">   -100.00000000   -100.00000000   -100.00000000</v>
    <i name="EFIELD">      0.00000000</i>
   </separator>
  </separator>
  <separator name="grids" >
   <i type="int" name="NGX">    14</i>
   <i type="int" name="NGY">    14</i>
   <i type="int" name="NGZ">    14</i>
   <i type="int" name="NGXF">    28</i>
   <i type="int" name="NGYF">    28</i>
   <i type="int" name="NGZF">    28</i>
   <i type="logical" name="ADDGRID"> F  </i>
  </separator>
  <separator name="ionic" >
   <i type="int" name="NSW">    30</i>
   <i type="int" name="IBRION">     2</i>
   <i type="int" name="ISIF">     2</i>
   <i name="PSTRESS">      0.00000000</i>
   <i name="EDIFFG">      0.00100000</i>
   <i type="int" name="NFREE">     1</i>
   <i name="POTIM">      0.50000000</i>
   <i name="SMASS">     -3.00000000</i>
   <i name="SCALEE">      1.00000000</i>
  </separator>
  <separator name="ionic md" >
   <i name="TEBEG">      0.00010000</i>
   <i name="TEEND">      0.00010000</i>
   <i type="int" name="NBLOCK">     1</i>
   <i type="int" name="KBLOCK">    30</i>
   <i type="int" name="NPACO">   256</i>
   <i name="APACO">     16.00000000</i>
  </separator>
  <separator name="symmetry" >
   <i type="int" name="ISYM">     2</i>
   <i name="SYMPREC">      0.00001000</i>
  </separator>
  <separator name="dos" >
   <i type="logical" name="LORBIT"> F  </i>
   <v name="RWIGS">     -1.00000000</v>
   <i type="int" name="NEDOS">   301</i>
   <i name="EMIN">     10.00000000</i>
   <i name="EMAX">    -10.00000000</i>
   <i name="EFERMI">      0.00000000</i>
  </separator>
  <separator name="writing" >
   <i type="int" name="NWRITE">     2</i>
   <i type="logical" name="LWAVE"> T  </i>
   <i type="logical" name="LCHARG"> T  </i>
   <i type="logical" name="LPARD"> F  </i>
   <i type="logical" name="LVTOT"> F  </i>
   <i type="logical" name="LVHAR"> F  </i>
   <i type="logical" name="LELF"> F  </i>
   <i type="logical" name="LOPTICS"> F  </i>
   <v name="STM">      0.00000000      0.00000000      0.00000000      0.00000000      0.00000000      0.00000000      0.00000000</v>
  </separator>
  <separator name="performance" >
   <i type="int" name="NPAR">     1</i>
   <i type="int" name="NSIM">     4</i>
   <i type="int" name="NBLK">    -1</i>
   <i type="logical" name="LPLANE"> T  </i>
   <i type="logical" name="LSCALAPACK"> F  </i>
   <i type="logical" name="LSCAAWARE"> F  </i>
   <i type="logical" name="LSCALU"> F  </i>
   <i type="logical" name="LASYNC"> F  </i>
   <i type="logical" name="LORBITALREAL"> F  </i>
  </separator>
  <separator name="miscellaneous" >
   <i type="int" name="IDIOT">     3</i>
   <i type="logical" name="LMUSIC"> F  </i>
   <v name="POMASS">    106.42000000</v>
   <v name="DARWINR">      0.00000000</v>
   <v name="DARWINV">      1.00000000</v>
   <i type="logical" name="LCORR"> T  </i>
  </separator>
  <i type="logical" name="GGA_COMPAT"> T  </i>
  <i type="logical" name="LBERRY"> F  </i>
  <i type="int" name="ICORELEVEL">     0</i>
  <i type="logical" name="LDAU"> F  </i>
  <i type="int" name="I_CONSTRAINED_M">     0</i>
  <separator name="electronic exchange-correlation" >
   <i type="string" name="GGA">--</i>
   <i type="int" name="VOSKOWN">     0</i>
   <i type="logical" name="LHFCALC"> F  </i>
   <i type="string" name="PRECFOCK"></i>
   <i type="logical" name="LSYMGRAD"> F  </i>
   <i type="logical" name="LHFONE"> F  </i>
   <i type="logical" name="LRHFCALC"> F  </i>
   <i type="logical" name="LTHOMAS"> F  </i>
   <i type="logical" name="LMODELHF"> F  </i>
   <i name="ENCUT4O">     -1.00000000</i>
   <i type="int" name="EXXOEP">     0</i>
   <i type="int" name="FOURORBIT">     0</i>
   <i name="AEXX">      0.00000000</i>
   <i name="HFALPHA">      0.00000000</i>
   <i name="MCALPHA">      0.00000000</i>
   <i name="ALDAX">      1.00000000</i>
   <i name="AGGAX">      1.00000000</i>
   <i name="ALDAC">      1.00000000</i>
   <i name="AGGAC">      1.00000000</i>
   <i type="int" name="NKREDX">     1</i>
   <i type="int" name="NKREDY">     1</i>
   <i type="int" name="NKREDZ">     1</i>
   <i type="logical" name="SHIFTRED"> F  </i>
   <i type="logical" name="ODDONLY"> F  </i>
   <i type="logical" name="EVENONLY"> F  </i>
   <i type="int" name="LMAXFOCK">     0</i>
   <i type="int" name="NMAXFOCKAE">     0</i>
   <i type="logical" name="LFOCKAEDFT"> F  </i>
   <i name="HFSCREEN">      0.00000000</i>
   <i name="HFSCREENC">      0.00000000</i>
   <i type="int" name="NBANDSGWLOW">     0</i>
  </separator>
  <separator name="vdW DFT" >
   <i type="logical" name="LUSE_VDW"> F  </i>
   <i name="Zab_VDW">     -0.84910000</i>
   <i name="PARAM1">      0.12340000</i>
   <i name="PARAM2">      1.00000000</i>
   <i name="PARAM3">      0.00000000</i>
  </separator>
  <separator name="model GW" >
   <i type="int" name="MODEL_GW">     0</i>
   <i name="MODEL_EPS0">     10.51617147</i>
   <i name="MODEL_ALPHA">      1.00000000</i>
  </separator>
  <separator name="linear response parameters" >
   <i type="logical" name="LEPSILON"> F  </i>
   <i type="logical" name="LRPA"> F  </i>
   <i type="logical" name="LNABLA"> F  </i>
   <i type="logical" name="LVEL"> F  </i>
   <i type="int" name="KINTER">     0</i>
   <i name="CSHIFT">      0.10000000</i>
   <i name="OMEGAMAX">     -1.00000000</i>
   <i name="DEG_THRESHOLD">      0.00200000</i>
  </separator>
  <separator name="orbital magnetization" >
   <i type="logical" name="NUCIND"> F  </i>
   <v name="MAGPOS">      0.00000000      0.00000000      0.00000000</v>
   <i type="logical" name="LNICSALL"> T  </i>
   <i type="logical" name="ORBITALMAG"> F  </i>
   <i type="logical" name="LMAGBLOCH"> F  </i>
   <i type="logical" name="LCHIMAG"> F  </i>
   <i type="logical" name="LGAUGE"> T  </i>
   <i type="int" name="MAGATOM">     0</i>
   <v name="MAGDIPOL">      0.00000000      0.00000000      0.00000000</v>
   <v name="AVECCONST">      0.00000000      0.00000000      0.00000000</v>
  </separator>
  <separator name="response functions" >
   <i type="logical" name="LADDER"> F  </i>
   <i type="logical" name="LFXC"> F  </i>
   <i type="logical" name="LHARTREE"> T  </i>
   <i type="int" name="IBSE">     0</i>
   <i type="logical" name="LTCTE"> F  </i>
   <i type="logical" name="LTETE"> F  </i>
   <i type="logical" name="LTRIPLET"> F  </i>
   <i type="logical" name="LFXCEPS"> F  </i>
   <i type="logical" name="LFXHEG"> F  </i>
   <i type="logical" name="L2ORDER"> F  </i>
   <i type="logical" name="LUSEW"> F  </i>
   <i name="ENCUTGW">     -2.00000000</i>
   <i name="ENCUTGWSOFT">     -2.00000000</i>
   <i name="ENCUTLF">     -1.00000000</i>
   <i type="int" name="LMAXMP2">    -1</i>
   <i name="SCISSOR">      0.00000000</i>
   <i type="int" name="NOMEGA">     0</i>
   <i type="int" name="NOMEGAR">     0</i>
   <i type="int" name="NBANDSGW">    -1</i>
   <i type="int" name="NBANDSO">    -1</i>
   <i type="int" name="NBANDSV">    -1</i>
   <i type="int" name="NELM">     1</i>
   <i type="int" name="DIM">     3</i>
   <i type="int" name="ANTIRES">     0</i>
   <i name="OMEGAMAX">    -30.00000000</i>
   <i name="OMEGAMIN">    -30.00000000</i>
   <i name="OMEGATL">   -200.00000000</i>
   <i type="int" name="OMEGAGRID">     0</i>
   <i name="CSHIFT">     -0.10000000</i>
   <i type="logical" name="SELFENERGY"> F  </i>
   <i type="logical" name="LSPECTRAL"> F  </i>
   <i type="logical" name="ODDONLYGW"> F  </i>
   <i type="logical" name="EVENONLYGW"> F  </i>
   <i type="int" name="NKREDLFX">     1</i>
   <i type="int" name="NKREDLFY">     1</i>
   <i type="int" name="NKREDLFZ">     1</i>
   <i type="int" name="MAXMEM">  1800</i>
   <i type="int" name="TELESCOPE">     0</i>
   <i type="int" name="TAUPAR">     1</i>
  </separator>
  <separator name="External order field" >
   <i name="OFIELD_KAPPA">      0.00000000</i>
   <v name="OFIELD_K">      0.00000000      0.00000000      0.00000000</v>
   <i name="OFIELD_Q6_NEAR">      0.00000000</i>
   <i name="OFIELD_Q6_FAR">      0.00000000</i>
   <i name="OFIELD_A">      0.00000000</i>
  </separator>
 </parameters>
 <atominfo>
  <atoms>       1 </atoms>
  <types>       1 </types>
  <array name="atoms" >
   <dimension dim="1">ion</dimension>
   <field type="string">element</field>
   <field type="int">atomtype</field>
   <set>
    <rc><c>Pd</c><c>   1</c></rc>
   </set>
  </array>
  <array name="atomtypes" >
   <dimension dim="1">type</dimension>
   <field type="int">atomspertype</field>
   <field type="string">element</field>
   <field>mass</field>
   <field>valence</field>
   <field type="string">pseudopotential</field>
   <set>
    <rc><c>   1</c><c>Pd</c><c>    106.42000000</c><c>     10.00000000</c><c>  PAW_PBE Pd 04Jan2005                  </c></rc>
   </set>
  </array>
 </atominfo>
 <structure name="initialpos" >
  <crystal>
   <varray name="basis" >
    <v>       2.91568410       0.00000000       0.00000000 </v>
    <v>       1.45784205       2.52505650       0.00000000 </v>
    <v>       1.45784205       0.84168550       2.38064610 </v>
   </varray>
   <i name="volume">     17.52695245 </i>
   <varray name="rec_basis" >
    <v>       0.34297268      -0.19801537      -0.14001801 </v>
    <v>       0.00000000       0.39603074      -0.14001801 </v>
    <v>       0.00000000       0.00000000       0.42005403 </v>
   </varray>
  </crystal>
  <varray name="positions" >
   <v>       0.00000000       0.00000000       0.00000000 </v>
  </varray>
 </structure>
 <calculation>
  <scstep>
   <time name="dav">    0.62    0.62</time>
   <time name="total">    0.65    0.65</time>
   <energy>
    <i name="alphaZ">     37.18571451 </i>
    <i name="ewald">   -800.56552902 </i>
    <i name="hartreedc">   -142.51965170 </i>
    <i name="XCdc">    -29.65048286 </i>
    <i name="pawpsdc">    806.73831454 </i>
    <i name="pawaedc">   -744.51602449 </i>
    <i name="eentropy">      0.00027633 </i>
    <i name="bandstr">     89.69197277 </i>
    <i name="atom">    809.72612850 </i>
    <i name="e_fr_energy">     26.09071858 </i>
    <i name="e_wo_entrp">     26.09044225 </i>
    <i name="e_0_energy">     26.09062647 </i>
   </energy>
  </scstep>
  <scstep>
   <time name="dav">    0.64    0.65</time>
   <time name="total">    0.65    0.65</time>
   <energy>
    <i name="e_fr_energy">     -5.00570783 </i>
    <i name="e_wo_entrp">     -4.99366312 </i>
    <i name="e_0_energy">     -5.00169292 </i>
   </energy>
  </scstep>
  <scstep>
   <time name="dav">    0.75    0.77</time>
   <time name="total">    0.76    0.81</time>
   <energy>
    <i name="e_fr_energy">     -5.31096470 </i>
    <i name="e_wo_entrp">     -5.30122007 </i>
    <i name="e_0_energy">     -5.30771649 </i>
   </energy>
  </scstep>
  <scstep>
   <time name="dav">    0.71    0.71</time>
   <time name="total">    0.71    0.72</time>
   <energy>
    <i name="e_fr_energy">     -5.31270129 </i>
    <i name="e_wo_entrp">     -5.30296008 </i>
    <i name="e_0_energy">     -5.30945422 </i>
   </energy>
  </scstep>
  <scstep>
   <time name="dav">    0.74    0.74</time>
   <time name="total">    0.80    0.82</time>
   <energy>
    <i name="e_fr_energy">     -5.31272984 </i>
    <i name="e_wo_entrp">     -5.30298867 </i>
    <i name="e_0_energy">     -5.30948278 </i>
   </energy>
  </scstep>
  <scstep>
   <time name="dav">    0.66    0.66</time>
   <time name="total">    0.76    0.80</time>
   <energy>
    <i name="e_fr_energy">     -5.09859407 </i>
    <i name="e_wo_entrp">     -5.09119257 </i>
    <i name="e_0_energy">     -5.09612691 </i>
   </energy>
  </scstep>
  <scstep>
   <time name="dav">    0.64    0.64</time>
   <time name="total">    0.73    0.84</time>
   <energy>
    <i name="e_fr_energy">     -5.09510997 </i>
    <i name="e_wo_entrp">     -5.08769675 </i>
    <i name="e_0_energy">     -5.09263890 </i>
   </energy>
  </scstep>
  <scstep>
   <time name="dav">    0.64    0.64</time>
   <time name="total">    0.74    0.83</time>
   <energy>
    <i name="e_fr_energy">     -5.09346954 </i>
    <i name="e_wo_entrp">     -5.08612487 </i>
    <i name="e_0_energy">     -5.09102131 </i>
   </energy>
  </scstep>
  <scstep>
   <time name="dav">    0.41    0.41</time>
   <time name="total">    0.45    0.45</time>
   <energy>
    <i name="alphaZ">     37.18571451 </i>
    <i name="ewald">   -800.56552902 </i>
    <i name="hartreedc">   -133.78240583 </i>
    <i name="XCdc">    -29.91873036 </i>
    <i name="pawpsdc">    897.15495397 </i>
    <i name="pawaedc">   -836.61220000 </i>
    <i name="eentropy">     -0.00734087 </i>
    <i name="bandstr">     51.72592873 </i>
    <i name="atom">    809.72612850 </i>
    <i name="e_fr_energy">     -5.09348037 </i>
    <i name="e_wo_entrp">     -5.08613950 </i>
    <i name="e_0_energy">     -5.09103341 </i>
   </energy>
  </scstep>
  <structure>
   <crystal>
    <varray name="basis" >
     <v>       2.91568410       0.00000000       0.00000000 </v>
     <v>       1.45784205       2.52505650       0.00000000 </v>
     <v>       1.45784205       0.84168550       2.38064610 </v>
    </varray>
    <i name="volume">     17.52695245 </i>
    <varray name="rec_basis" >
     <v>       0.34297268      -0.19801537      -0.14001801 </v>
     <v>       0.00000000       0.39603074      -0.14001801 </v>
     <v>       0.00000000       0.00000000       0.42005403 </v>
    </varray>
   </crystal>
   <varray name="positions" >
    <v>       0.00000000       0.00000000       0.00000000 </v>
   </varray>
  </structure>
  <varray name="forces" >
   <v>       0.00000000       0.00000000       0.00000000 </v>
  </varray>
  <varray name="stress" >
   <v>    -164.70196529       0.00000000       0.00000000 </v>
   <v>       0.00000000    -164.70196529       0.00000000 </v>
   <v>       0.00000000       0.00000000    -164.70196529 </v>
  </varray>
  <energy>
   <i name="e_fr_energy">     -5.09348037 </i>
   <i name="e_wo_entrp">     -5.09103341 </i>
   <i name="e_0_energy">     -0.00734087 </i>
  </energy>
  <time name="totalsc">    6.80    7.21</time>
  <eigenvalues>
   <array>
    <dimension dim="1">band</dimension>
    <dimension dim="2">kpoint</dimension>
    <dimension dim="3">spin</dimension>
    <field>eigene</field>
    <field>occ</field>
    <set>
     <set comment="spin 1">
      <set comment="kpoint 1">
       <r>    1.3730    1.0000 </r>
       <r>    4.9657    1.0000 </r>
       <r>    5.0399    1.0000 </r>
       <r>    5.0399    1.0000 </r>
       <r>    6.2006    1.0000 </r>
       <r>    6.2006    1.0000 </r>
       <r>   24.1880    0.0000 </r>
       <r>   26.9863    0.0000 </r>
       <r>   28.0114    0.0000 </r>
      </set>
      <set comment="kpoint 2">
       <r>    1.9882    1.0000 </r>
       <r>    4.7920    1.0000 </r>
       <r>    5.2035    1.0000 </r>
       <r>    5.2234    1.0000 </r>
       <r>    6.0400    1.0000 </r>
       <r>    6.2919    1.0000 </r>
       <r>   23.7933    0.0000 </r>
       <r>   24.9098    0.0000 </r>
       <r>   27.3775    0.0000 </r>
      </set>
      <set comment="kpoint 3">
       <r>    3.0027    1.0000 </r>
       <r>    4.9763    1.0000 </r>
       <r>    5.2472    1.0000 </r>
       <r>    5.2688    1.0000 </r>
       <r>    6.2253    1.0000 </r>
       <r>    6.7210    1.0043 </r>
       <r>   19.5534    0.0000 </r>
       <r>   24.4102    0.0000 </r>
       <r>   26.9669    0.0000 </r>
      </set>
      <set comment="kpoint 4">
       <r>    3.1802    1.0000 </r>
       <r>    5.0055    1.0000 </r>
       <r>    5.0931    1.0000 </r>
       <r>    6.3829    1.0000 </r>
       <r>    6.8073    1.0166 </r>
       <r>    7.8253    0.0000 </r>
       <r>   15.2371    0.0000 </r>
       <r>   23.6556    0.0000 </r>
       <r>   25.8588    0.0000 </r>
      </set>
      <set comment="kpoint 5">
       <r>    3.1383    1.0000 </r>
       <r>    4.9231    1.0000 </r>
       <r>    5.0449    1.0000 </r>
       <r>    6.6972    1.0027 </r>
       <r>    7.1228    0.6402 </r>
       <r>    8.9351    0.0000 </r>
       <r>   13.3319    0.0000 </r>
       <r>   23.4371    0.0000 </r>
       <r>   25.9792    0.0000 </r>
      </set>
      <set comment="kpoint 6">
       <r>    3.1868    1.0000 </r>
       <r>    5.0468    1.0000 </r>
       <r>    5.1733    1.0000 </r>
       <r>    5.8454    1.0000 </r>
       <r>    6.9015    1.0351 </r>
       <r>    7.1429    0.5576 </r>
       <r>   16.5842    0.0000 </r>
       <r>   24.0238    0.0000 </r>
       <r>   26.2568    0.0000 </r>
      </set>
      <set comment="kpoint 7">
       <r>    2.7117    1.0000 </r>
       <r>    4.7723    1.0000 </r>
       <r>    5.2647    1.0000 </r>
       <r>    5.3032    1.0000 </r>
       <r>    6.1771    1.0000 </r>
       <r>    6.4457    1.0000 </r>
       <r>   21.0664    0.0000 </r>
       <r>   24.9031    0.0000 </r>
       <r>   27.0045    0.0000 </r>
      </set>
      <set comment="kpoint 8">
       <r>    1.6907    1.0000 </r>
       <r>    4.8346    1.0000 </r>
       <r>    5.1559    1.0000 </r>
       <r>    5.1601    1.0000 </r>
       <r>    6.0610    1.0000 </r>
       <r>    6.2716    1.0000 </r>
       <r>   24.3086    0.0000 </r>
       <r>   25.8643    0.0000 </r>
       <r>   27.4307    0.0000 </r>
      </set>
      <set comment="kpoint 9">
       <r>    2.2818    1.0000 </r>
       <r>    4.5807    1.0000 </r>
       <r>    5.3744    1.0000 </r>
       <r>    5.3940    1.0000 </r>
       <r>    5.8769    1.0000 </r>
       <r>    6.4043    1.0000 </r>
       <r>   24.1221    0.0000 </r>
       <r>   25.1318    0.0000 </r>
       <r>   26.1678    0.0000 </r>
      </set>
      <set comment="kpoint 10">
       <r>    3.2005    1.0000 </r>
       <r>    4.3546    1.0000 </r>
       <r>    5.2303    1.0000 </r>
       <r>    5.6835    1.0000 </r>
       <r>    6.1714    1.0000 </r>
       <r>    6.8164    1.0185 </r>
       <r>   21.4774    0.0000 </r>
       <r>   23.3682    0.0000 </r>
       <r>   25.8272    0.0000 </r>
      </set>
      <set comment="kpoint 11">
       <r>    3.5757    1.0000 </r>
       <r>    4.7792    1.0000 </r>
       <r>    5.0378    1.0000 </r>
       <r>    5.5804    1.0000 </r>
       <r>    6.8851    1.0332 </r>
       <r>    8.2426    0.0000 </r>
       <r>   16.9414    0.0000 </r>
       <r>   22.8676    0.0000 </r>
       <r>   23.9730    0.0000 </r>
      </set>
      <set comment="kpoint 12">
       <r>    3.5343    1.0000 </r>
       <r>    4.6434    1.0000 </r>
       <r>    5.4064    1.0000 </r>
       <r>    5.7192    1.0000 </r>
       <r>    7.0741    0.8179 </r>
       <r>   10.5231    0.0000 </r>
       <r>   13.4330    0.0000 </r>
       <r>   22.3899    0.0000 </r>
       <r>   23.3477    0.0000 </r>
      </set>
      <set comment="kpoint 13">
       <r>    3.6207    1.0000 </r>
       <r>    4.7514    1.0000 </r>
       <r>    5.3279    1.0000 </r>
       <r>    5.5402    1.0000 </r>
       <r>    6.7267    1.0048 </r>
       <r>    9.1259    0.0000 </r>
       <r>   15.6123    0.0000 </r>
       <r>   21.7782    0.0000 </r>
       <r>   24.3824    0.0000 </r>
      </set>
      <set comment="kpoint 14">
       <r>    3.5255    1.0000 </r>
       <r>    4.5080    1.0000 </r>
       <r>    5.0859    1.0000 </r>
       <r>    5.6518    1.0000 </r>
       <r>    6.0467    1.0000 </r>
       <r>    7.3955   -0.0353 </r>
       <r>   19.9763    0.0000 </r>
       <r>   22.0159    0.0000 </r>
       <r>   26.1066    0.0000 </r>
      </set>
      <set comment="kpoint 15">
       <r>    2.5376    1.0000 </r>
       <r>    4.6135    1.0000 </r>
       <r>    5.3033    1.0000 </r>
       <r>    5.3933    1.0000 </r>
       <r>    5.9518    1.0000 </r>
       <r>    6.4907    1.0000 </r>
       <r>   22.6924    0.0000 </r>
       <r>   24.2772    0.0000 </r>
       <r>   26.9379    0.0000 </r>
      </set>
      <set comment="kpoint 16">
       <r>    3.4503    1.0000 </r>
       <r>    3.9400    1.0000 </r>
       <r>    5.7452    1.0000 </r>
       <r>    6.1267    1.0000 </r>
       <r>    6.6283    1.0006 </r>
       <r>    6.7813    1.0117 </r>
       <r>   21.7997    0.0000 </r>
       <r>   22.8203    0.0000 </r>
       <r>   23.4813    0.0000 </r>
      </set>
      <set comment="kpoint 17">
       <r>    3.6008    1.0000 </r>
       <r>    3.8221    1.0000 </r>
       <r>    5.6698    1.0000 </r>
       <r>    6.4473    1.0000 </r>
       <r>    6.9398    1.0318 </r>
       <r>    8.5011    0.0000 </r>
       <r>   19.0943    0.0000 </r>
       <r>   20.9032    0.0000 </r>
       <r>   21.1761    0.0000 </r>
      </set>
      <set comment="kpoint 18">
       <r>    3.6909    1.0000 </r>
       <r>    4.1635    1.0000 </r>
       <r>    5.3736    1.0000 </r>
       <r>    6.1742    1.0000 </r>
       <r>    7.1315    0.6048 </r>
       <r>   11.4681    0.0000 </r>
       <r>   15.0403    0.0000 </r>
       <r>   19.1339    0.0000 </r>
       <r>   21.2982    0.0000 </r>
      </set>
      <set comment="kpoint 19">
       <r>    4.0316    1.0000 </r>
       <r>    4.4912    1.0000 </r>
       <r>    4.9410    1.0000 </r>
       <r>    5.9817    1.0000 </r>
       <r>    6.7557    1.0079 </r>
       <r>   11.6330    0.0000 </r>
       <r>   15.3229    0.0000 </r>
       <r>   17.8122    0.0000 </r>
       <r>   22.7953    0.0000 </r>
      </set>
      <set comment="kpoint 20">
       <r>    4.0664    1.0000 </r>
       <r>    4.6201    1.0000 </r>
       <r>    4.7961    1.0000 </r>
       <r>    5.8050    1.0000 </r>
       <r>    6.3623    1.0000 </r>
       <r>    9.1551    0.0000 </r>
       <r>   17.4863    0.0000 </r>
       <r>   19.6105    0.0000 </r>
       <r>   24.4844    0.0000 </r>
      </set>
      <set comment="kpoint 21">
       <r>    3.3208    1.0000 </r>
       <r>    5.0126    1.0000 </r>
       <r>    5.1232    1.0000 </r>
       <r>    5.3656    1.0000 </r>
       <r>    6.4963    1.0000 </r>
       <r>    7.2686    0.0986 </r>
       <r>   18.1798    0.0000 </r>
       <r>   23.7138    0.0000 </r>
       <r>   25.7217    0.0000 </r>
      </set>
      <set comment="kpoint 22">
       <r>    3.2483    1.0000 </r>
       <r>    3.4441    1.0000 </r>
       <r>    6.8365    1.0231 </r>
       <r>    6.8657    1.0296 </r>
       <r>    7.1675    0.4536 </r>
       <r>    9.2001    0.0000 </r>
       <r>   18.4132    0.0000 </r>
       <r>   19.5306    0.0000 </r>
       <r>   20.2352    0.0000 </r>
      </set>
      <set comment="kpoint 23">
       <r>    3.2975    1.0000 </r>
       <r>    3.5077    1.0000 </r>
       <r>    6.4626    1.0000 </r>
       <r>    6.8467    1.0254 </r>
       <r>    7.2922    0.0479 </r>
       <r>   11.4351    0.0000 </r>
       <r>   16.5282    0.0000 </r>
       <r>   17.8682    0.0000 </r>
       <r>   19.4909    0.0000 </r>
      </set>
      <set comment="kpoint 24">
       <r>    3.6380    1.0000 </r>
       <r>    4.0478    1.0000 </r>
       <r>    5.5458    1.0000 </r>
       <r>    6.3767    1.0000 </r>
       <r>    7.0949    0.7474 </r>
       <r>   13.2315    0.0000 </r>
       <r>   14.5784    0.0000 </r>
       <r>   16.9955    0.0000 </r>
       <r>   20.9308    0.0000 </r>
      </set>
      <set comment="kpoint 25">
       <r>    3.8273    1.0000 </r>
       <r>    4.4729    1.0000 </r>
       <r>    5.3117    1.0000 </r>
       <r>    5.7058    1.0000 </r>
       <r>    6.9491    1.0286 </r>
       <r>   11.5563    0.0000 </r>
       <r>   13.6766    0.0000 </r>
       <r>   20.1365    0.0000 </r>
       <r>   22.9484    0.0000 </r>
      </set>
      <set comment="kpoint 26">
       <r>    3.3022    1.0000 </r>
       <r>    4.8501    1.0000 </r>
       <r>    5.1880    1.0000 </r>
       <r>    6.1198    1.0000 </r>
       <r>    7.0231    0.9478 </r>
       <r>    9.0466    0.0000 </r>
       <r>   14.1545    0.0000 </r>
       <r>   23.2996    0.0000 </r>
       <r>   24.7607    0.0000 </r>
      </set>
      <set comment="kpoint 27">
       <r>    3.1228    1.0000 </r>
       <r>    3.3329    1.0000 </r>
       <r>    7.0256    0.9429 </r>
       <r>    7.1136    0.6772 </r>
       <r>    7.3075    0.0223 </r>
       <r>   10.5624    0.0000 </r>
       <r>   16.5603    0.0000 </r>
       <r>   18.9468    0.0000 </r>
       <r>   19.6375    0.0000 </r>
      </set>
      <set comment="kpoint 28">
       <r>    3.4229    1.0000 </r>
       <r>    3.6152    1.0000 </r>
       <r>    6.1359    1.0000 </r>
       <r>    6.7559    1.0079 </r>
       <r>    7.1471    0.5395 </r>
       <r>   10.0119    0.0000 </r>
       <r>   18.0093    0.0000 </r>
       <r>   18.8074    0.0000 </r>
       <r>   20.0116    0.0000 </r>
      </set>
      <set comment="kpoint 29">
       <r>    3.6986    1.0000 </r>
       <r>    4.4212    1.0000 </r>
       <r>    5.1610    1.0000 </r>
       <r>    5.8741    1.0000 </r>
       <r>    7.0890    0.7684 </r>
       <r>    9.6985    0.0000 </r>
       <r>   15.8672    0.0000 </r>
       <r>   21.6089    0.0000 </r>
       <r>   21.9949    0.0000 </r>
      </set>
      <set comment="kpoint 30">
       <r>    3.4280    1.0000 </r>
       <r>    3.6546    1.0000 </r>
       <r>    6.3369    1.0000 </r>
       <r>    6.5371    1.0001 </r>
       <r>    6.9810    1.0073 </r>
       <r>    7.7013   -0.0004 </r>
       <r>   20.4780    0.0000 </r>
       <r>   21.0090    0.0000 </r>
       <r>   21.3415    0.0000 </r>
      </set>
      <set comment="kpoint 31">
       <r>    3.6305    1.0000 </r>
       <r>    4.0817    1.0000 </r>
       <r>    5.2671    1.0000 </r>
       <r>    6.0496    1.0000 </r>
       <r>    6.6150    1.0004 </r>
       <r>    7.3967   -0.0354 </r>
       <r>   20.2561    0.0000 </r>
       <r>   22.1520    0.0000 </r>
       <r>   23.6586    0.0000 </r>
      </set>
      <set comment="kpoint 32">
       <r>    2.9972    1.0000 </r>
       <r>    4.2641    1.0000 </r>
       <r>    5.4810    1.0000 </r>
       <r>    5.7262    1.0000 </r>
       <r>    6.0232    1.0000 </r>
       <r>    6.5817    1.0002 </r>
       <r>   23.0999    0.0000 </r>
       <r>   24.5075    0.0000 </r>
       <r>   24.9975    0.0000 </r>
      </set>
      <set comment="kpoint 33">
       <r>    2.2477    1.0000 </r>
       <r>    4.8292    1.0000 </r>
       <r>    5.2233    1.0000 </r>
       <r>    5.2233    1.0000 </r>
       <r>    6.1948    1.0000 </r>
       <r>    6.1948    1.0000 </r>
       <r>   22.4501    0.0000 </r>
       <r>   25.0614    0.0000 </r>
       <r>   28.5086    0.0000 </r>
      </set>
      <set comment="kpoint 34">
       <r>    2.9952    1.0000 </r>
       <r>    4.6043    1.0000 </r>
       <r>    5.2587    1.0000 </r>
       <r>    5.4675    1.0000 </r>
       <r>    5.8871    1.0000 </r>
       <r>    6.8422    1.0244 </r>
       <r>   21.2792    0.0000 </r>
       <r>   23.1685    0.0000 </r>
       <r>   27.3347    0.0000 </r>
      </set>
      <set comment="kpoint 35">
       <r>    3.8354    1.0000 </r>
       <r>    4.6241    1.0000 </r>
       <r>    5.0352    1.0000 </r>
       <r>    5.6110    1.0000 </r>
       <r>    6.0737    1.0000 </r>
       <r>    8.1548    0.0000 </r>
       <r>   18.6493    0.0000 </r>
       <r>   20.7429    0.0000 </r>
       <r>   25.9763    0.0000 </r>
      </set>
      <set comment="kpoint 36">
       <r>    3.7007    1.0000 </r>
       <r>    4.6469    1.0000 </r>
       <r>    5.4887    1.0000 </r>
       <r>    5.5161    1.0000 </r>
       <r>    6.7755    1.0107 </r>
       <r>   10.2260    0.0000 </r>
       <r>   14.5077    0.0000 </r>
       <r>   20.8344    0.0000 </r>
       <r>   25.0076    0.0000 </r>
      </set>
      <set comment="kpoint 37">
       <r>    3.5840    1.0000 </r>
       <r>    4.5990    1.0000 </r>
       <r>    5.4287    1.0000 </r>
       <r>    5.5561    1.0000 </r>
       <r>    7.1576    0.4955 </r>
       <r>   10.1164    0.0000 </r>
       <r>   14.3693    0.0000 </r>
       <r>   21.8958    0.0000 </r>
       <r>   23.7963    0.0000 </r>
      </set>
      <set comment="kpoint 38">
       <r>    3.5758    1.0000 </r>
       <r>    4.4026    1.0000 </r>
       <r>    5.1443    1.0000 </r>
       <r>    5.7256    1.0000 </r>
       <r>    6.9808    1.0075 </r>
       <r>    7.5741   -0.0060 </r>
       <r>   18.5019    0.0000 </r>
       <r>   23.5839    0.0000 </r>
       <r>   23.5937    0.0000 </r>
      </set>
      <set comment="kpoint 39">
       <r>    3.2395    1.0000 </r>
       <r>    4.6256    1.0000 </r>
       <r>    5.1556    1.0000 </r>
       <r>    5.4702    1.0000 </r>
       <r>    6.6202    1.0005 </r>
       <r>    6.7272    1.0048 </r>
       <r>   19.7481    0.0000 </r>
       <r>   24.6234    0.0000 </r>
       <r>   25.2386    0.0000 </r>
      </set>
      <set comment="kpoint 40">
       <r>    3.8891    1.0000 </r>
       <r>    4.3789    1.0000 </r>
       <r>    4.8644    1.0000 </r>
       <r>    5.9656    1.0000 </r>
       <r>    6.4353    1.0000 </r>
       <r>    8.2250    0.0000 </r>
       <r>   18.7813    0.0000 </r>
       <r>   20.8674    0.0000 </r>
       <r>   23.9530    0.0000 </r>
      </set>
      <set comment="kpoint 41">
       <r>    4.2137    1.0000 </r>
       <r>    4.3874    1.0000 </r>
       <r>    4.6904    1.0000 </r>
       <r>    6.0732    1.0000 </r>
       <r>    6.7281    1.0049 </r>
       <r>   10.4986    0.0000 </r>
       <r>   16.4835    0.0000 </r>
       <r>   18.6922    0.0000 </r>
       <r>   22.0608    0.0000 </r>
      </set>
      <set comment="kpoint 42">
       <r>    3.9922    1.0000 </r>
       <r>    4.2952    1.0000 </r>
       <r>    5.0400    1.0000 </r>
       <r>    5.9935    1.0000 </r>
       <r>    7.0478    0.8931 </r>
       <r>   12.3753    0.0000 </r>
       <r>   13.9004    0.0000 </r>
       <r>   19.6249    0.0000 </r>
       <r>   20.5750    0.0000 </r>
      </set>
      <set comment="kpoint 43">
       <r>    3.8873    1.0000 </r>
       <r>    4.1486    1.0000 </r>
       <r>    5.0324    1.0000 </r>
       <r>    6.3072    1.0000 </r>
       <r>    6.7980    1.0147 </r>
       <r>    9.4673    0.0000 </r>
       <r>   17.7220    0.0000 </r>
       <r>   19.8197    0.0000 </r>
       <r>   21.4957    0.0000 </r>
      </set>
      <set comment="kpoint 44">
       <r>    3.6002    1.0000 </r>
       <r>    4.0958    1.0000 </r>
       <r>    5.4776    1.0000 </r>
       <r>    6.0453    1.0000 </r>
       <r>    7.1547    0.5074 </r>
       <r>    8.9415    0.0000 </r>
       <r>   17.3749    0.0000 </r>
       <r>   21.2903    0.0000 </r>
       <r>   22.2381    0.0000 </r>
      </set>
      <set comment="kpoint 45">
       <r>    3.7292    1.0000 </r>
       <r>    3.9363    1.0000 </r>
       <r>    5.3870    1.0000 </r>
       <r>    6.5037    1.0000 </r>
       <r>    7.0899    0.7653 </r>
       <r>   11.0701    0.0000 </r>
       <r>   16.8748    0.0000 </r>
       <r>   18.7050    0.0000 </r>
       <r>   19.3899    0.0000 </r>
      </set>
      <set comment="kpoint 46">
       <r>    3.8939    1.0000 </r>
       <r>    4.3012    1.0000 </r>
       <r>    4.9202    1.0000 </r>
       <r>    6.2220    1.0000 </r>
       <r>    7.2849    0.0620 </r>
       <r>   13.9857    0.0000 </r>
       <r>   15.2395    0.0000 </r>
       <r>   16.9333    0.0000 </r>
       <r>   18.1716    0.0000 </r>
      </set>
      <set comment="kpoint 47">
       <r>    4.0554    1.0000 </r>
       <r>    4.3085    1.0000 </r>
       <r>    4.7922    1.0000 </r>
       <r>    6.2101    1.0000 </r>
       <r>    7.0649    0.8463 </r>
       <r>   12.1812    0.0000 </r>
       <r>   15.6954    0.0000 </r>
       <r>   17.9959    0.0000 </r>
       <r>   19.6349    0.0000 </r>
      </set>
      <set comment="kpoint 48">
       <r>    3.4012    1.0000 </r>
       <r>    3.7192    1.0000 </r>
       <r>    6.1436    1.0000 </r>
       <r>    6.6397    1.0008 </r>
       <r>    7.1755    0.4199 </r>
       <r>   12.1438    0.0000 </r>
       <r>   15.8969    0.0000 </r>
       <r>   16.9381    0.0000 </r>
       <r>   20.7721    0.0000 </r>
      </set>
      <set comment="kpoint 49">
       <r>    3.6005    1.0000 </r>
       <r>    3.8412    1.0000 </r>
       <r>    5.6602    1.0000 </r>
       <r>    6.5186    1.0000 </r>
       <r>    7.2865    0.0588 </r>
       <r>   12.6658    0.0000 </r>
       <r>   16.2362    0.0000 </r>
       <r>   17.0335    0.0000 </r>
       <r>   18.7903    0.0000 </r>
      </set>
      <set comment="kpoint 50">
       <r>    3.4931    1.0000 </r>
       <r>    3.8450    1.0000 </r>
       <r>    5.8846    1.0000 </r>
       <r>    6.3807    1.0000 </r>
       <r>    7.2144    0.2660 </r>
       <r>   10.5931    0.0000 </r>
       <r>   16.4740    0.0000 </r>
       <r>   18.8403    0.0000 </r>
       <r>   21.2739    0.0000 </r>
      </set>
      <set comment="kpoint 51">
       <r>    3.0592    1.0000 </r>
       <r>    5.1603    1.0000 </r>
       <r>    5.1603    1.0000 </r>
       <r>    5.6391    1.0000 </r>
       <r>    6.5895    1.0002 </r>
       <r>    6.5895    1.0002 </r>
       <r>   17.9764    0.0000 </r>
       <r>   24.3623    0.0000 </r>
       <r>   27.9803    0.0000 </r>
      </set>
      <set comment="kpoint 52">
       <r>    3.4475    1.0000 </r>
       <r>    4.9426    1.0000 </r>
       <r>    5.3090    1.0000 </r>
       <r>    5.4831    1.0000 </r>
       <r>    6.4565    1.0000 </r>
       <r>    8.0398    0.0000 </r>
       <r>   16.8034    0.0000 </r>
       <r>   22.6986    0.0000 </r>
       <r>   25.4893    0.0000 </r>
      </set>
      <set comment="kpoint 53">
       <r>    4.0730    1.0000 </r>
       <r>    4.6157    1.0000 </r>
       <r>    4.9504    1.0000 </r>
       <r>    5.7810    1.0000 </r>
       <r>    6.4869    1.0000 </r>
       <r>   10.2585    0.0000 </r>
       <r>   16.3443    0.0000 </r>
       <r>   18.5619    0.0000 </r>
       <r>   25.3465    0.0000 </r>
      </set>
      <set comment="kpoint 54">
       <r>    3.7773    1.0000 </r>
       <r>    4.3381    1.0000 </r>
       <r>    5.2791    1.0000 </r>
       <r>    6.1522    1.0000 </r>
       <r>    6.8839    1.0330 </r>
       <r>   12.9489    0.0000 </r>
       <r>   14.2259    0.0000 </r>
       <r>   17.2655    0.0000 </r>
       <r>   22.7722    0.0000 </r>
      </set>
      <set comment="kpoint 55">
       <r>    3.3758    1.0000 </r>
       <r>    4.8490    1.0000 </r>
       <r>    5.3111    1.0000 </r>
       <r>    5.6207    1.0000 </r>
       <r>    7.1045    0.7120 </r>
       <r>    8.4617    0.0000 </r>
       <r>   15.3739    0.0000 </r>
       <r>   23.5594    0.0000 </r>
       <r>   24.8492    0.0000 </r>
      </set>
      <set comment="kpoint 56">
       <r>    3.8275    1.0000 </r>
       <r>    4.4867    1.0000 </r>
       <r>    5.1879    1.0000 </r>
       <r>    5.7461    1.0000 </r>
       <r>    6.9583    1.0242 </r>
       <r>   10.6014    0.0000 </r>
       <r>   14.6184    0.0000 </r>
       <r>   21.0174    0.0000 </r>
       <r>   22.1691    0.0000 </r>
      </set>
      <set comment="kpoint 57">
       <r>    3.9728    1.0000 </r>
       <r>    4.3355    1.0000 </r>
       <r>    4.9358    1.0000 </r>
       <r>    6.1515    1.0000 </r>
       <r>    7.0645    0.8475 </r>
       <r>   13.3163    0.0000 </r>
       <r>   14.4880    0.0000 </r>
       <r>   17.3476    0.0000 </r>
       <r>   20.2957    0.0000 </r>
      </set>
      <set comment="kpoint 58">
       <r>    3.7346    1.0000 </r>
       <r>    4.4048    1.0000 </r>
       <r>    5.3214    1.0000 </r>
       <r>    5.8684    1.0000 </r>
       <r>    7.0590    0.8630 </r>
       <r>   11.9591    0.0000 </r>
       <r>   13.6768    0.0000 </r>
       <r>   19.5132    0.0000 </r>
       <r>   23.1082    0.0000 </r>
      </set>
      <set comment="kpoint 59">
       <r>    3.0763    1.0000 </r>
       <r>    5.0013    1.0000 </r>
       <r>    5.0013    1.0000 </r>
       <r>    7.0461    0.8972 </r>
       <r>    7.0461    0.8972 </r>
       <r>    7.8990    0.0000 </r>
       <r>   14.0433    0.0000 </r>
       <r>   23.5465    0.0000 </r>
       <r>   26.7090    0.0000 </r>
      </set>
      <set comment="kpoint 60">
       <r>    3.3560    1.0000 </r>
       <r>    4.7858    1.0000 </r>
       <r>    5.2164    1.0000 </r>
       <r>    6.1248    1.0000 </r>
       <r>    7.0219    0.9500 </r>
       <r>    9.8716    0.0000 </r>
       <r>   13.3879    0.0000 </r>
       <r>   22.8066    0.0000 </r>
       <r>   24.8753    0.0000 </r>
      </set>
     </set>
    </set>
   </array>
  </eigenvalues>
  <separator name="orbital magnetization" >
   <v name="MAGDIPOLOUT">      0.00000000      0.00000000      0.00000000</v>
  </separator>
  <dos>
   <i name="efermi">      7.15649997 </i>
   <total>
    <array>
     <dimension dim="1">gridpoints</dimension>
     <dimension dim="2">spin</dimension>
     <field>energy</field>
     <field>total</field>
     <field>integrated</field>
     <set>
      <set comment="spin 1">
       <r>    -0.6270     0.0000     0.0000 </r>
       <r>    -0.5232     0.0000     0.0000 </r>
       <r>    -0.4194     0.0000     0.0000 </r>
       <r>    -0.3156     0.0000     0.0000 </r>
       <r>    -0.2118     0.0000     0.0000 </r>
       <r>    -0.1080     0.0000     0.0000 </r>
       <r>    -0.0042     0.0000     0.0000 </r>
       <r>     0.0995     0.0000     0.0000 </r>
       <r>     0.2033     0.0000     0.0000 </r>
       <r>     0.3071     0.0000     0.0000 </r>
       <r>     0.4109     0.0000     0.0000 </r>
       <r>     0.5147     0.0000     0.0000 </r>
       <r>     0.6185     0.0000     0.0000 </r>
       <r>     0.7223     0.0000     0.0000 </r>
       <r>     0.8260     0.0000     0.0000 </r>
       <r>     0.9298    -0.0003     0.0000 </r>
       <r>     1.0336    -0.0011    -0.0001 </r>
       <r>     1.1374    -0.0013    -0.0003 </r>
       <r>     1.2412     0.0061     0.0004 </r>
       <r>     1.3450     0.0215     0.0026 </r>
       <r>     1.4488     0.0270     0.0054 </r>
       <r>     1.5525     0.0331     0.0088 </r>
       <r>     1.6563     0.0687     0.0159 </r>
       <r>     1.7601     0.0894     0.0252 </r>
       <r>     1.8639     0.0731     0.0328 </r>
       <r>     1.9677     0.0776     0.0409 </r>
       <r>     2.0715     0.0867     0.0499 </r>
       <r>     2.1753     0.0858     0.0588 </r>
       <r>     2.2790     0.1084     0.0700 </r>
       <r>     2.3828     0.1258     0.0831 </r>
       <r>     2.4866     0.1602     0.0997 </r>
       <r>     2.5904     0.2095     0.1214 </r>
       <r>     2.6942     0.1778     0.1399 </r>
       <r>     2.7980     0.0926     0.1495 </r>
       <r>     2.9017     0.1067     0.1606 </r>
       <r>     3.0055     0.3055     0.1923 </r>
       <r>     3.1093     0.6304     0.2577 </r>
       <r>     3.2131     1.0364     0.3653 </r>
       <r>     3.3169     1.4343     0.5141 </r>
       <r>     3.4207     1.7820     0.6991 </r>
       <r>     3.5245     2.2926     0.9370 </r>
       <r>     3.6282     2.8080     1.2284 </r>
       <r>     3.7320     2.8092     1.5200 </r>
       <r>     3.8358     2.5265     1.7822 </r>
       <r>     3.9396     2.3841     2.0296 </r>
       <r>     4.0434     2.2182     2.2598 </r>
       <r>     4.1472     1.8839     2.4554 </r>
       <r>     4.2510     1.7165     2.6335 </r>
       <r>     4.3547     1.9779     2.8388 </r>
       <r>     4.4585     2.1779     3.0648 </r>
       <r>     4.5623     2.0865     3.2814 </r>
       <r>     4.6661     2.0379     3.4929 </r>
       <r>     4.7699     2.1419     3.7152 </r>
       <r>     4.8737     2.3655     3.9607 </r>
       <r>     4.9775     2.6645     4.2372 </r>
       <r>     5.0812     2.9798     4.5465 </r>
       <r>     5.1850     3.3190     4.8909 </r>
       <r>     5.2888     3.5751     5.2620 </r>
       <r>     5.3926     3.3646     5.6112 </r>
       <r>     5.4964     2.7321     5.8947 </r>
       <r>     5.6002     2.3257     6.1361 </r>
       <r>     5.7039     2.2782     6.3725 </r>
       <r>     5.8077     2.0959     6.5901 </r>
       <r>     5.9115     1.9230     6.7896 </r>
       <r>     6.0153     2.2972     7.0281 </r>
       <r>     6.1191     2.8689     7.3258 </r>
       <r>     6.2229     2.8249     7.6190 </r>
       <r>     6.3267     2.3708     7.8651 </r>
       <r>     6.4304     2.3039     8.1042 </r>
       <r>     6.5342     2.3339     8.3464 </r>
       <r>     6.6380     2.0950     8.5638 </r>
       <r>     6.7418     2.1440     8.7863 </r>
       <r>     6.8456     2.4652     9.0422 </r>
       <r>     6.9494     2.7569     9.3283 </r>
       <r>     7.0532     3.2058     9.6610 </r>
       <r>     7.1569     3.2789    10.0013 </r>
       <r>     7.2607     2.4890    10.2596 </r>
       <r>     7.3645     1.4766    10.4129 </r>
       <r>     7.4683     0.7115    10.4867 </r>
       <r>     7.5721     0.2576    10.5135 </r>
       <r>     7.6759     0.1312    10.5271 </r>
       <r>     7.7797     0.1534    10.5430 </r>
       <r>     7.8834     0.1520    10.5588 </r>
       <r>     7.9872     0.1378    10.5731 </r>
       <r>     8.0910     0.2272    10.5967 </r>
       <r>     8.1948     0.4105    10.6393 </r>
       <r>     8.2986     0.4628    10.6873 </r>
       <r>     8.4024     0.3574    10.7244 </r>
       <r>     8.5061     0.2917    10.7547 </r>
       <r>     8.6099     0.2012    10.7755 </r>
       <r>     8.7137     0.0492    10.7806 </r>
       <r>     8.8175     0.0175    10.7825 </r>
       <r>     8.9213     0.1805    10.8012 </r>
       <r>     9.0251     0.4499    10.8479 </r>
       <r>     9.1289     0.6363    10.9139 </r>
       <r>     9.2326     0.5357    10.9695 </r>
       <r>     9.3364     0.2636    10.9969 </r>
       <r>     9.4402     0.1500    11.0124 </r>
       <r>     9.5440     0.1795    11.0311 </r>
       <r>     9.6478     0.2022    11.0520 </r>
       <r>     9.7516     0.2111    11.0740 </r>
       <r>     9.8554     0.2051    11.0952 </r>
       <r>     9.9591     0.2325    11.1194 </r>
       <r>    10.0629     0.2906    11.1495 </r>
       <r>    10.1667     0.2964    11.1803 </r>
       <r>    10.2705     0.2340    11.2046 </r>
       <r>    10.3743     0.2167    11.2271 </r>
       <r>    10.4781     0.4367    11.2724 </r>
       <r>    10.5819     0.6926    11.3443 </r>
       <r>    10.6856     0.5440    11.4007 </r>
       <r>    10.7894     0.1639    11.4177 </r>
       <r>    10.8932    -0.0059    11.4171 </r>
       <r>    10.9970     0.0713    11.4245 </r>
       <r>    11.1008     0.1673    11.4419 </r>
       <r>    11.2046     0.1203    11.4544 </r>
       <r>    11.3083     0.0875    11.4635 </r>
       <r>    11.4121     0.2898    11.4935 </r>
       <r>    11.5159     0.5581    11.5514 </r>
       <r>    11.6197     0.5652    11.6101 </r>
       <r>    11.7235     0.3168    11.6430 </r>
       <r>    11.8273     0.0880    11.6521 </r>
       <r>    11.9311     0.0461    11.6569 </r>
       <r>    12.0348     0.1318    11.6706 </r>
       <r>    12.1386     0.2538    11.6969 </r>
       <r>    12.2424     0.3199    11.7301 </r>
       <r>    12.3462     0.2830    11.7595 </r>
       <r>    12.4500     0.1982    11.7801 </r>
       <r>    12.5538     0.1408    11.7947 </r>
       <r>    12.6576     0.1644    11.8117 </r>
       <r>    12.7613     0.1682    11.8292 </r>
       <r>    12.8651     0.1086    11.8405 </r>
       <r>    12.9689     0.0716    11.8479 </r>
       <r>    13.0727     0.0668    11.8548 </r>
       <r>    13.1765     0.1753    11.8730 </r>
       <r>    13.2803     0.4406    11.9188 </r>
       <r>    13.3841     0.6040    11.9815 </r>
       <r>    13.4878     0.4737    12.0306 </r>
       <r>    13.5916     0.2882    12.0605 </r>
       <r>    13.6954     0.2627    12.0878 </r>
       <r>    13.7992     0.2805    12.1169 </r>
       <r>    13.9030     0.3207    12.1502 </r>
       <r>    14.0068     0.3894    12.1906 </r>
       <r>    14.1106     0.3868    12.2307 </r>
       <r>    14.2143     0.3208    12.2640 </r>
       <r>    14.3181     0.2512    12.2901 </r>
       <r>    14.4219     0.3164    12.3230 </r>
       <r>    14.5257     0.5313    12.3781 </r>
       <r>    14.6295     0.5858    12.4389 </r>
       <r>    14.7333     0.3285    12.4730 </r>
       <r>    14.8370     0.0595    12.4791 </r>
       <r>    14.9408     0.0285    12.4821 </r>
       <r>    15.0446     0.1502    12.4977 </r>
       <r>    15.1484     0.2945    12.5283 </r>
       <r>    15.2522     0.4532    12.5753 </r>
       <r>    15.3560     0.4896    12.6261 </r>
       <r>    15.4598     0.3204    12.6594 </r>
       <r>    15.5635     0.2247    12.6827 </r>
       <r>    15.6673     0.3188    12.7158 </r>
       <r>    15.7711     0.3895    12.7562 </r>
       <r>    15.8749     0.3622    12.7938 </r>
       <r>    15.9787     0.2446    12.8192 </r>
       <r>    16.0825     0.1022    12.8298 </r>
       <r>    16.1863     0.1062    12.8408 </r>
       <r>    16.2900     0.2270    12.8643 </r>
       <r>    16.3938     0.3866    12.9045 </r>
       <r>    16.4976     0.5871    12.9654 </r>
       <r>    16.6014     0.5810    13.0257 </r>
       <r>    16.7052     0.3281    13.0598 </r>
       <r>    16.8090     0.3430    13.0954 </r>
       <r>    16.9128     0.7568    13.1739 </r>
       <r>    17.0165     0.9461    13.2721 </r>
       <r>    17.1203     0.5979    13.3341 </r>
       <r>    17.2241     0.2560    13.3607 </r>
       <r>    17.3279     0.2985    13.3917 </r>
       <r>    17.4317     0.4124    13.4345 </r>
       <r>    17.5355     0.3262    13.4684 </r>
       <r>    17.6392     0.2190    13.4911 </r>
       <r>    17.7430     0.3193    13.5242 </r>
       <r>    17.8468     0.5200    13.5782 </r>
       <r>    17.9506     0.6251    13.6431 </r>
       <r>    18.0544     0.6266    13.7081 </r>
       <r>    18.1582     0.5578    13.7660 </r>
       <r>    18.2620     0.3928    13.8068 </r>
       <r>    18.3657     0.2035    13.8279 </r>
       <r>    18.4695     0.1698    13.8455 </r>
       <r>    18.5733     0.3431    13.8811 </r>
       <r>    18.6771     0.7037    13.9541 </r>
       <r>    18.7809     1.0066    14.0586 </r>
       <r>    18.8847     0.8666    14.1486 </r>
       <r>    18.9885     0.4937    14.1998 </r>
       <r>    19.0922     0.3544    14.2366 </r>
       <r>    19.1960     0.3153    14.2693 </r>
       <r>    19.2998     0.2117    14.2913 </r>
       <r>    19.4036     0.3192    14.3244 </r>
       <r>    19.5074     0.7214    14.3993 </r>
       <r>    19.6112     1.0486    14.5081 </r>
       <r>    19.7150     0.9317    14.6048 </r>
       <r>    19.8187     0.5655    14.6635 </r>
       <r>    19.9225     0.3969    14.7047 </r>
       <r>    20.0263     0.4488    14.7513 </r>
       <r>    20.1301     0.5246    14.8057 </r>
       <r>    20.2339     0.5804    14.8659 </r>
       <r>    20.3377     0.5237    14.9203 </r>
       <r>    20.4414     0.3408    14.9557 </r>
       <r>    20.5452     0.2389    14.9805 </r>
       <r>    20.6490     0.2487    15.0063 </r>
       <r>    20.7528     0.3783    15.0455 </r>
       <r>    20.8566     0.6777    15.1159 </r>
       <r>    20.9604     0.8823    15.2074 </r>
       <r>    21.0642     0.7692    15.2873 </r>
       <r>    21.1679     0.6062    15.3502 </r>
       <r>    21.2717     0.6495    15.4176 </r>
       <r>    21.3755     0.7011    15.4904 </r>
       <r>    21.4793     0.6265    15.5554 </r>
       <r>    21.5831     0.5097    15.6083 </r>
       <r>    21.6869     0.3907    15.6488 </r>
       <r>    21.7907     0.3534    15.6855 </r>
       <r>    21.8944     0.4383    15.7310 </r>
       <r>    21.9982     0.6368    15.7971 </r>
       <r>    22.1020     0.8074    15.8809 </r>
       <r>    22.2058     0.7272    15.9564 </r>
       <r>    22.3096     0.4689    16.0050 </r>
       <r>    22.4134     0.2604    16.0321 </r>
       <r>    22.5172     0.1437    16.0470 </r>
       <r>    22.6209     0.2047    16.0682 </r>
       <r>    22.7247     0.5432    16.1246 </r>
       <r>    22.8285     0.8478    16.2126 </r>
       <r>    22.9323     0.7664    16.2921 </r>
       <r>    23.0361     0.4756    16.3415 </r>
       <r>    23.1399     0.3343    16.3762 </r>
       <r>    23.2436     0.4227    16.4200 </r>
       <r>    23.3474     0.6148    16.4838 </r>
       <r>    23.4512     0.7002    16.5565 </r>
       <r>    23.5550     0.7092    16.6301 </r>
       <r>    23.6588     0.7666    16.7097 </r>
       <r>    23.7626     0.7122    16.7836 </r>
       <r>    23.8664     0.5591    16.8416 </r>
       <r>    23.9701     0.5121    16.8948 </r>
       <r>    24.0739     0.4620    16.9427 </r>
       <r>    24.1777     0.3618    16.9803 </r>
       <r>    24.2815     0.4380    17.0257 </r>
       <r>    24.3853     0.6303    17.0911 </r>
       <r>    24.4891     0.6426    17.1578 </r>
       <r>    24.5929     0.4418    17.2037 </r>
       <r>    24.6966     0.2998    17.2348 </r>
       <r>    24.8004     0.3918    17.2755 </r>
       <r>    24.9042     0.5514    17.3327 </r>
       <r>    25.0080     0.5410    17.3888 </r>
       <r>    25.1118     0.3823    17.4285 </r>
       <r>    25.2156     0.2502    17.4545 </r>
       <r>    25.3194     0.1996    17.4752 </r>
       <r>    25.4231     0.1679    17.4926 </r>
       <r>    25.5269     0.1229    17.5054 </r>
       <r>    25.6307     0.1350    17.5194 </r>
       <r>    25.7345     0.2990    17.5504 </r>
       <r>    25.8383     0.5068    17.6030 </r>
       <r>    25.9421     0.5498    17.6601 </r>
       <r>    26.0459     0.4684    17.7087 </r>
       <r>    26.1496     0.4009    17.7503 </r>
       <r>    26.2534     0.3021    17.7816 </r>
       <r>    26.3572     0.1424    17.7964 </r>
       <r>    26.4610     0.0210    17.7986 </r>
       <r>    26.5648    -0.0136    17.7972 </r>
       <r>    26.6686    -0.0038    17.7968 </r>
       <r>    26.7723     0.0438    17.8014 </r>
       <r>    26.8761     0.2019    17.8223 </r>
       <r>    26.9799     0.3813    17.8619 </r>
       <r>    27.0837     0.3228    17.8954 </r>
       <r>    27.1875     0.1273    17.9086 </r>
       <r>    27.2913     0.1185    17.9209 </r>
       <r>    27.3951     0.2407    17.9459 </r>
       <r>    27.4988     0.2258    17.9693 </r>
       <r>    27.6026     0.0846    17.9781 </r>
       <r>    27.7064    -0.0044    17.9776 </r>
       <r>    27.8102    -0.0085    17.9768 </r>
       <r>    27.9140     0.0267    17.9795 </r>
       <r>    28.0178     0.0604    17.9858 </r>
       <r>    28.1216     0.0502    17.9910 </r>
       <r>    28.2253     0.0140    17.9925 </r>
       <r>    28.3291    -0.0004    17.9924 </r>
       <r>    28.4329     0.0138    17.9938 </r>
       <r>    28.5367     0.0306    17.9970 </r>
       <r>    28.6405     0.0246    17.9996 </r>
       <r>    28.7443     0.0068    18.0003 </r>
       <r>    28.8481    -0.0012    18.0001 </r>
       <r>    28.9518    -0.0011    18.0000 </r>
       <r>    29.0556    -0.0003    18.0000 </r>
       <r>    29.1594     0.0000    18.0000 </r>
       <r>    29.2632     0.0000    18.0000 </r>
       <r>    29.3670     0.0000    18.0000 </r>
       <r>    29.4708     0.0000    18.0000 </r>
       <r>    29.5745     0.0000    18.0000 </r>
       <r>    29.6783     0.0000    18.0000 </r>
       <r>    29.7821     0.0000    18.0000 </r>
       <r>    29.8859     0.0000    18.0000 </r>
       <r>    29.9897     0.0000    18.0000 </r>
       <r>    30.0935     0.0000    18.0000 </r>
       <r>    30.1973     0.0000    18.0000 </r>
       <r>    30.3010     0.0000    18.0000 </r>
       <r>    30.4048     0.0000    18.0000 </r>
       <r>    30.5086     0.0000    18.0000 </r>
      </set>
     </set>
    </array>
   </total>
  </dos>
 </calculation>
 <structure name="finalpos" >
  <crystal>
   <varray name="basis" >
    <v>       2.91568410       0.00000000       0.00000000 </v>
    <v>       1.45784205       2.52505650       0.00000000 </v>
    <v>       1.45784205       0.84168550       2.38064610 </v>
   </varray>
   <i name="volume">     17.52695245 </i>
   <varray name="rec_basis" >
    <v>       0.34297268      -0.19801537      -0.14001801 </v>
    <v>       0.00000000       0.39603074      -0.14001801 </v>
    <v>       0.00000000       0.00000000       0.42005403 </v>
   </varray>
  </crystal>
  <varray name="positions" >
   <v>       0.00000000       0.00000000       0.00000000 </v>
  </varray>
 </structure>
</modeling>
