unknown system                          
           1
     2.915684    0.000000    0.000000
     1.457842    2.525057    0.000000
     1.457842    0.841686    2.380646
   Pd
   1
Direct configuration=     1
   0.00000000  0.00000000  0.00000000
