unknown system                          
   1.00000000000000     
     2.475581    0.000000    0.000000
     1.237790    2.143916    0.000000
     1.237790    0.714639    2.021303
   Pd
     1
Direct
  0.000000  0.000000  0.000000
 
   24   24   24
  66.745      64.502      58.421      50.049      40.990      32.293      24.442      17.708      12.385      8.6969    
  6.5671      5.5588      5.2340      5.5588      6.5671      8.6969      12.385      17.708      24.442      32.293    
  40.990      50.049      58.421      64.502      64.502      60.347      53.168      44.562      35.835      27.706    
  20.521      14.574      10.155      7.3542      5.8983      5.2665      5.2660      5.8978      7.3547      10.155    
  14.573      20.520      27.706      35.836      44.562      53.168      60.347      64.502      58.421      53.168    
  45.848      37.784      29.884      22.643      16.409      11.517      8.1755      6.2706      5.3519      5.0494    
  5.3519      6.2706      8.1755      11.517      16.409      22.643      29.884      37.784      45.848      53.168    
  58.421      60.347      50.050      44.562      37.784      30.651      23.787      17.628      12.567      8.8988    
  6.6420      5.4655      4.9166      4.9169      5.4658      6.6417      8.8985      12.568      17.628      23.786    
  30.651      37.784      44.562      50.049      53.168      53.168      40.991      35.835      29.884      23.787    
  18.055      13.138      9.3939      6.9453      5.5785      4.8557      4.6127      4.8557      5.5785      6.9453    
  9.3939      13.138      18.055      23.787      29.884      35.835      40.991      44.562      45.848      44.562    
  32.293      27.706      22.644      17.628      13.138      9.5702      7.1163      5.6633      4.8390      4.4300    
  4.4299      4.8389      5.6635      7.1164      9.5701      13.138      17.628      22.644      27.706      32.293    
  35.835      37.784      37.784      35.835      24.441      20.521      16.409      12.567      9.3941      7.1164    
  5.6952      4.8390      4.3392      4.1764      4.3392      4.8390      5.6952      7.1164      9.3941      12.567    
  16.409      20.521      24.441      27.706      29.884      30.651      29.884      27.706      17.708      14.573    
  11.517      8.8987      6.9453      5.6634      4.8390      4.3127      4.0621      4.0620      4.3126      4.8391    
  5.6634      6.9453      8.8986      11.517      14.573      17.708      20.521      22.644      23.787      23.787    
  22.644      20.521      12.385      10.155      8.1755      6.6419      5.5784      4.8390      4.3391      4.0621    
  3.9748      4.0621      4.3391      4.8390      5.5784      6.6419      8.1755      10.155      12.385      14.573    
  16.409      17.628      18.055      17.628      16.409      14.573      8.6969      7.3545      6.2708      5.4656    
  4.8557      4.4300      4.1764      4.0620      4.0621      4.1764      4.4299      4.8557      5.4657      6.2709    
  7.3545      8.6968      10.155      11.517      12.567      13.138      13.138      12.567      11.517      10.155    
  6.5667      5.8981      5.3519      4.9167      4.6128      4.4300      4.3392      4.3126      4.3392      4.4300    
  4.6128      4.9167      5.3519      5.8981      6.5668      7.3545      8.1755      8.8987      9.3941      9.5701    
  9.3941      8.8987      8.1755      7.3545      5.5588      5.2663      5.0491      4.9168      4.8557      4.8390    
  4.8390      4.8390      4.8390      4.8557      4.9167      5.0490      5.2662      5.5588      5.8981      6.2709    
  6.6419      6.9453      7.1164      7.1164      6.9453      6.6419      6.2709      5.8980      5.2344      5.2662    
  5.3519      5.4657      5.5784      5.6634      5.6953      5.6634      5.5784      5.4657      5.3519      5.2662    
  5.2344      5.2662      5.3519      5.4657      5.5784      5.6634      5.6953      5.6634      5.5784      5.4657    
  5.3519      5.2662      5.5588      5.8980      6.2709      6.6419      6.9453      7.1164      7.1164      6.9453    
  6.6419      6.2709      5.8981      5.5588      5.2662      5.0490      4.9167      4.8557      4.8390      4.8390    
  4.8390      4.8390      4.8557      4.9168      5.0491      5.2663      6.5667      7.3545      8.1755      8.8987    
  9.3941      9.5701      9.3941      8.8987      8.1755      7.3545      6.5668      5.8981      5.3519      4.9167    
  4.6128      4.4300      4.3392      4.3126      4.3392      4.4300      4.6128      4.9167      5.3519      5.8981    
  8.6969      10.155      11.517      12.567      13.138      13.138      12.567      11.517      10.155      8.6968    
  7.3545      6.2709      5.4657      4.8557      4.4299      4.1764      4.0621      4.0620      4.1764      4.4300    
  4.8557      5.4656      6.2708      7.3545      12.385      14.573      16.409      17.628      18.055      17.628    
  16.409      14.573      12.385      10.155      8.1755      6.6419      5.5784      4.8390      4.3391      4.0621    
  3.9748      4.0621      4.3391      4.8390      5.5784      6.6419      8.1755      10.155      17.708      20.521    
  22.644      23.787      23.787      22.644      20.521      17.708      14.573      11.517      8.8986      6.9453    
  5.6634      4.8391      4.3126      4.0620      4.0621      4.3127      4.8390      5.6634      6.9453      8.8987    
  11.517      14.573      24.441      27.706      29.884      30.651      29.884      27.706      24.441      20.521    
  16.409      12.567      9.3941      7.1164      5.6952      4.8390      4.3392      4.1764      4.3392      4.8390    
  5.6952      7.1164      9.3941      12.567      16.409      20.521      32.293      35.835      37.784      37.784    
  35.835      32.293      27.706      22.644      17.628      13.138      9.5701      7.1164      5.6635      4.8389    
  4.4299      4.4300      4.8390      5.6633      7.1163      9.5702      13.138      17.628      22.644      27.706    
  40.991      44.562      45.848      44.562      40.991      35.835      29.884      23.787      18.055      13.138    
  9.3939      6.9453      5.5785      4.8557      4.6127      4.8557      5.5785      6.9453      9.3939      13.138    
  18.055      23.787      29.884      35.835      50.050      53.168      53.168      50.049      44.562      37.784    
  30.651      23.786      17.628      12.568      8.8985      6.6417      5.4658      4.9169      4.9166      5.4655    
  6.6420      8.8988      12.567      17.628      23.787      30.651      37.784      44.562      58.421      60.347    
  58.421      53.168      45.848      37.784      29.884      22.643      16.409      11.517      8.1755      6.2706    
  5.3519      5.0494      5.3519      6.2706      8.1755      11.517      16.409      22.643      29.884      37.784    
  45.848      53.168      64.502      64.502      60.347      53.168      44.562      35.836      27.706      20.520    
  14.573      10.155      7.3547      5.8978      5.2660      5.2665      5.8983      7.3542      10.155      14.574    
  20.521      27.706      35.835      44.562      53.168      60.347      64.502      60.347      53.168      44.562    
  35.835      27.706      20.521      14.574      10.155      7.3542      5.8983      5.2665      5.2660      5.8978    
  7.3547      10.155      14.573      20.520      27.706      35.836      44.562      53.168      60.347      64.502    
  60.347      54.793      47.099      38.695      30.542      23.130      16.769      11.768      8.3342      6.3663    
  5.4231      5.1145      5.4231      6.3663      8.3342      11.768      16.769      23.130      30.542      38.695    
  47.099      54.793      60.347      62.390      53.168      47.099      39.709      32.071      24.839      18.409    
  13.123      9.2595      6.8567      5.6056      5.0343      5.0346      5.6060      6.8563      9.2591      13.123    
  18.409      24.839      32.071      39.710      47.099      53.168      56.646      56.647      44.562      38.694    
  32.070      25.433      19.284      14.020      9.9772      7.2938      5.7877      5.0156      4.7557      5.0156    
  5.7877      7.2938      9.9772      14.020      19.284      25.433      32.071      38.695      44.562      48.696    
  50.197      48.696      35.835      30.542      24.839      19.283      14.334      10.368      7.5965      5.9395    
  5.0325      4.5846      4.5844      5.0323      5.9396      7.5967      10.368      14.334      19.284      24.839    
  30.542      35.835      40.017      42.353      42.353      40.017      27.706      23.131      18.409      14.020    
  10.368      7.7048      6.0270      5.0566      4.4961      4.3116      4.4961      5.0566      6.0270      7.7048    
  10.368      14.020      18.409      23.131      27.706      31.597      34.243      35.185      34.243      31.597    
  20.521      16.769      13.123      9.9774      7.5966      6.0270      5.0673      4.4615      4.1686      4.1686    
  4.4615      5.0674      6.0271      7.5966      9.9774      13.123      16.769      20.521      23.929      26.541    
  27.965      27.965      26.541      23.929      14.573      11.768      9.2593      7.2938      5.9396      5.0567    
  4.4615      4.1251      4.0182      4.1251      4.4615      5.0567      5.9396      7.2938      9.2593      11.768    
  14.573      17.327      19.652      21.210      21.759      21.210      19.652      17.327      10.155      8.3342    
  6.8565      5.7875      5.0324      4.4962      4.1686      4.0181      4.0182      4.1686      4.4961      5.0324    
  5.7875      6.8566      8.3342      10.155      12.116      13.943      15.354      16.123      16.123      15.354    
  13.943      12.116      7.3545      6.3666      5.6058      5.0156      4.5845      4.3116      4.1686      4.1251    
  4.1686      4.3116      4.5845      5.0156      5.6058      6.3667      7.3545      8.5245      9.7339      10.791    
  11.513      11.770      11.513      10.791      9.7339      8.5245      5.8981      5.4231      5.0345      4.7559    
  4.5845      4.4962      4.4615      4.4615      4.4961      4.5845      4.7559      5.0344      5.4231      5.8981    
  6.4620      7.0980      7.7243      8.2291      8.5110      8.5110      8.2290      7.7243      7.0980      6.4620    
  5.2662      5.1141      5.0345      5.0156      5.0324      5.0567      5.0674      5.0567      5.0324      5.0156    
  5.0344      5.1141      5.2662      5.4817      5.7332      5.9996      6.2484      6.4277      6.4932      6.4277    
  6.2483      5.9996      5.7331      5.4817      5.2662      5.4231      5.6058      5.7875      5.9395      6.0270    
  6.0271      5.9396      5.7875      5.6058      5.4231      5.2662      5.1635      5.1269      5.1479      5.2024    
  5.2606      5.2973      5.2973      5.2606      5.2024      5.1479      5.1269      5.1636      5.8980      6.3666    
  6.8565      7.2938      7.5966      7.7047      7.5966      7.2939      6.8566      6.3666      5.8981      5.4817    
  5.1269      4.8636      4.6978      4.6118      4.5768      4.5684      4.5768      4.6118      4.6978      4.8636    
  5.1270      5.4818      7.3545      8.3341      9.2593      9.9774      10.368      10.368      9.9774      9.2594    
  8.3342      7.3545      6.4620      5.7332      5.1479      4.6978      4.3960      4.2231      4.1477      4.1477    
  4.2231      4.3960      4.6978      5.1479      5.7331      6.4620      10.155      11.768      13.123      14.020    
  14.334      14.020      13.123      11.768      10.155      8.5245      7.0980      5.9996      5.2024      4.6118    
  4.2231      4.0124      3.9470      4.0124      4.2231      4.6118      5.2024      5.9996      7.0979      8.5245    
  14.573      16.769      18.409      19.283      19.283      18.409      16.769      14.573      12.116      9.7339    
  7.7243      6.2483      5.2607      4.5769      4.1477      3.9469      3.9470      4.1477      4.5768      5.2606    
  6.2484      7.7243      9.7339      12.116      20.521      23.131      24.839      25.433      24.839      23.131    
  20.521      17.327      13.943      10.791      8.2291      6.4277      5.2973      4.5684      4.1477      4.0124    
  4.1477      4.5684      5.2972      6.4276      8.2291      10.791      13.943      17.327      27.706      30.542    
  32.071      32.071      30.542      27.706      23.929      19.653      15.354      11.513      8.5110      6.4932    
  5.2973      4.5768      4.2231      4.2231      4.5768      5.2972      6.4931      8.5110      11.513      15.354    
  19.653      23.929      35.835      38.695      39.709      38.695      35.835      31.597      26.541      21.210    
  16.123      11.770      8.5109      6.4277      5.2607      4.6118      4.3959      4.6118      5.2607      6.4277    
  8.5109      11.770      16.123      21.210      26.541      31.597      44.562      47.099      47.099      44.562    
  40.017      34.243      27.965      21.759      16.123      11.513      8.2289      6.2482      5.2025      4.6979    
  4.6977      5.2022      6.2485      8.2292      11.513      16.123      21.759      27.965      34.242      40.017    
  53.168      54.794      53.168      48.696      42.353      35.185      27.965      21.210      15.354      10.792    
  7.7243      5.9993      5.1479      4.8639      5.1479      5.9994      7.7243      10.792      15.354      21.210    
  27.965      35.185      42.353      48.696      60.347      60.347      56.647      50.197      42.353      34.243    
  26.541      19.652      13.943      9.7341      7.0982      5.7329      5.1267      5.1272      5.7334      7.0978    
  9.7337      13.943      19.653      26.541      34.242      42.353      50.198      56.646      64.501      62.389    
  56.647      48.696      40.017      31.597      23.929      17.327      12.116      8.5245      6.4623      5.4817    
  5.1632      5.4817      6.4623      8.5245      12.116      17.327      23.929      31.597      40.017      48.696    
  56.647      62.389      58.421      53.168      45.848      37.784      29.884      22.643      16.409      11.517    
  8.1755      6.2706      5.3519      5.0494      5.3519      6.2706      8.1755      11.517      16.409      22.643    
  29.884      37.784      45.848      53.168      58.421      60.347      53.168      47.099      39.709      32.071    
  24.839      18.409      13.123      9.2595      6.8567      5.6056      5.0343      5.0346      5.6060      6.8563    
  9.2591      13.123      18.409      24.839      32.071      39.710      47.099      53.168      56.646      56.647    
  45.848      39.709      32.833      25.999      19.703      14.323      10.180      7.4166      5.8609      5.0713    
  4.8057      5.0713      5.8609      7.4166      10.180      14.323      19.703      25.999      32.833      39.709    
  45.848      50.198      51.782      50.198      37.784      32.071      25.999      20.149      14.962      10.794    
  7.8569      6.0888      5.1350      4.6672      4.6670      5.1348      6.0890      7.8570      10.794      14.962    
  20.150      25.999      32.071      37.784      42.353      44.927      44.926      42.353      29.884      24.839    
  19.703      14.962      11.009      8.0988      6.2491      5.1968      4.5989      4.4007      4.5989      5.1968    
  6.2491      8.0988      11.009      14.962      19.703      24.839      29.884      34.242      37.245      38.322    
  37.245      34.242      22.644      18.409      14.323      10.794      8.0987      6.3068      5.2342      4.5736    
  4.2505      4.2505      4.5736      5.2342      6.3068      8.0987      10.794      14.323      18.409      22.644    
  26.541      29.570      31.239      31.239      29.570      26.541      16.409      13.123      10.180      7.8570    
  6.2491      5.2342      4.5681      4.1859      4.0634      4.1859      4.5681      5.2342      6.2491      7.8570    
  10.180      13.123      16.409      19.652      22.419      24.292      24.955      24.292      22.419      19.653    
  11.517      9.2594      7.4166      6.0889      5.1969      4.5736      4.1859      4.0055      4.0056      4.1859    
  4.5736      5.1969      6.0889      7.4166      9.2593      11.517      13.943      16.209      17.970      18.935    
  18.935      17.970      16.209      13.943      8.1755      6.8566      5.8607      5.1349      4.5989      4.2505    
  4.0634      4.0055      4.0634      4.2505      4.5989      5.1348      5.8607      6.8566      8.1755      9.7339    
  11.338      12.740      13.699      14.039      13.699      12.740      11.338      9.7338      6.2709      5.6058    
  5.0713      4.6671      4.4006      4.2505      4.1859      4.1859      4.2504      4.4006      4.6671      5.0713    
  5.6058      6.2709      7.0980      8.0339      8.9492      9.6827      10.091      10.091      9.6827      8.9492    
  8.0339      7.0980      5.3519      5.0345      4.8059      4.6671      4.5989      4.5736      4.5681      4.5736    
  4.5989      4.6671      4.8058      5.0344      5.3518      5.7332      6.1657      6.6283      7.0528      7.3537    
  7.4627      7.3537      7.0528      6.6283      6.1657      5.7332      5.0491      5.0345      5.0713      5.1349    
  5.1969      5.2342      5.2342      5.1969      5.1349      5.0713      5.0344      5.0490      5.1269      5.2610    
  5.4269      5.5952      5.7383      5.8218      5.8218      5.7383      5.5951      5.4268      5.2610      5.1270    
  5.3519      5.6058      5.8607      6.0889      6.2491      6.3068      6.2491      6.0889      5.8607      5.6058    
  5.3519      5.1269      4.9618      4.8686      4.8382      4.8468      4.8665      4.8757      4.8665      4.8468    
  4.8382      4.8686      4.9618      5.1270      6.2709      6.8565      7.4166      7.8570      8.0987      8.0987    
  7.8570      7.4166      6.8566      6.2709      5.7331      5.2610      4.8686      4.5842      4.4068      4.3135    
  4.2762      4.2761      4.3135      4.4068      4.5843      4.8686      5.2610      5.7331      8.1755      9.2593    
  10.180      10.794      11.009      10.794      10.180      9.2594      8.1756      7.0980      6.1656      5.4269    
  4.8382      4.4068      4.1326      3.9883      3.9443      3.9883      4.1326      4.4068      4.8382      5.4269    
  6.1656      7.0980      11.517      13.123      14.323      14.962      14.962      14.323      13.123      11.517    
  9.7339      8.0339      6.6283      5.5951      4.8468      4.3135      3.9883      3.8390      3.8390      3.9884    
  4.3135      4.8467      5.5952      6.6283      8.0338      9.7339      16.409      18.409      19.703      20.149    
  19.703      18.409      16.409      13.943      11.338      8.9492      7.0528      5.7382      4.8665      4.2762    
  3.9443      3.8390      3.9443      4.2762      4.8664      5.7382      7.0528      8.9492      11.338      13.943    
  22.644      24.839      25.999      25.999      24.839      22.644      19.653      16.209      12.740      9.6827    
  7.3538      5.8218      4.8757      4.2762      3.9884      3.9883      4.2761      4.8757      5.8218      7.3537    
  9.6827      12.740      16.209      19.653      29.884      32.071      32.833      32.071      29.884      26.541    
  22.419      17.970      13.699      10.091      7.4626      5.8218      4.8665      4.3135      4.1326      4.3135    
  4.8665      5.8218      7.4626      10.091      13.699      17.970      22.419      26.541      37.784      39.709    
  39.709      37.784      34.243      29.570      24.292      18.935      14.040      10.091      7.3537      5.7382    
  4.8469      4.4069      4.4068      4.8467      5.7383      7.3538      10.091      14.039      18.935      24.292    
  29.570      34.242      45.848      47.099      45.848      42.353      37.245      31.239      24.955      18.934    
  13.699      9.6828      7.0528      5.5950      4.8382      4.5844      4.8382      5.5950      7.0528      9.6829    
  13.699      18.934      24.955      31.239      37.245      42.353      53.168      53.168      50.198      44.926    
  38.322      31.239      24.292      17.970      12.740      8.9493      6.6284      5.4267      4.8685      4.8688    
  5.4270      6.6281      8.9490      12.740      17.970      24.292      31.239      38.322      44.927      50.197    
  58.421      56.646      51.782      44.927      37.245      29.570      22.420      16.209      11.338      8.0339    
  6.1659      5.2610      4.9616      5.2610      6.1659      8.0339      11.338      16.209      22.420      29.570    
  37.245      44.927      51.782      56.646      60.347      56.646      50.198      42.353      34.242      26.541    
  19.653      13.943      9.7337      7.0978      5.7334      5.1272      5.1267      5.7329      7.0982      9.7341    
  13.943      19.652      26.541      34.243      42.353      50.197      56.647      60.347      50.050      44.562    
  37.784      30.651      23.787      17.628      12.567      8.8988      6.6420      5.4655      4.9166      4.9169    
  5.4658      6.6417      8.8985      12.568      17.628      23.786      30.651      37.784      44.562      50.049    
  53.168      53.168      44.562      38.694      32.070      25.433      19.284      14.020      9.9772      7.2938    
  5.7877      5.0156      4.7557      5.0156      5.7877      7.2938      9.9772      14.020      19.284      25.433    
  32.071      38.695      44.562      48.696      50.197      48.696      37.784      32.071      25.999      20.149    
  14.962      10.794      7.8569      6.0888      5.1350      4.6672      4.6670      5.1348      6.0890      7.8570    
  10.794      14.962      20.150      25.999      32.071      37.784      42.353      44.927      44.926      42.353    
  30.651      25.433      20.149      15.286      11.231      8.2370      6.3272      5.2451      4.6347      4.4318    
  4.6347      5.2451      6.3272      8.2369      11.231      15.286      20.149      25.433      30.651      35.184    
  38.322      39.450      38.322      35.184      23.787      19.283      14.962      11.231      8.3706      6.4592    
  5.3220      4.6336      4.2948      4.2949      4.6337      5.3220      6.4591      8.3707      11.231      14.962    
  19.283      23.787      27.965      31.239      33.053      33.053      31.239      27.965      17.628      14.020    
  10.794      8.2369      6.4592      5.3497      4.6402      4.2293      4.0970      4.2293      4.6402      5.3497    
  6.4592      8.2369      10.794      14.020      17.628      21.210      24.292      26.393      27.140      26.393    
  24.292      21.210      12.567      9.9774      7.8569      6.3272      5.3220      4.6402      4.2106      4.0092    
  4.0093      4.2107      4.6402      5.3220      6.3273      7.8570      9.9774      12.567      15.354      17.970    
  20.016      21.142      21.142      20.016      17.970      15.354      8.8987      7.2939      6.0889      5.2451    
  4.6336      4.2294      4.0092      3.9406      4.0092      4.2294      4.6336      5.2452      6.0889      7.2939    
  8.8987      10.791      12.740      14.448      15.620      16.037      15.620      14.448      12.740      10.791    
  6.6419      5.7875      5.1349      4.6347      4.2948      4.0970      4.0093      4.0092      4.0969      4.2948    
  4.6347      5.1349      5.7875      6.6419      7.7243      8.9492      10.145      11.103      11.636      11.636    
  11.103      10.145      8.9492      7.7243      5.4656      5.0156      4.6671      4.4317      4.2948      4.2293    
  4.2107      4.2293      4.2948      4.4316      4.6671      5.0156      5.4657      5.9996      6.6283      7.3027    
  7.9176      8.3511      8.5076      8.3511      7.9176      7.3027      6.6283      5.9996      4.9168      4.7559    
  4.6671      4.6347      4.6336      4.6402      4.6402      4.6336      4.6347      4.6671      4.7558      4.9167    
  5.1479      5.4269      5.7257      6.0226      6.2694      6.4108      6.4108      6.2694      6.0226      5.7257    
  5.4269      5.1479      4.9168      5.0156      5.1349      5.2452      5.3220      5.3497      5.3220      5.2452    
  5.1349      5.0156      4.9167      4.8636      4.8686      4.9264      5.0162      5.1091      5.1780      5.2035    
  5.1780      5.1091      5.0162      4.9264      4.8686      4.8636      5.4657      5.7875      6.0889      6.3272    
  6.4592      6.4592      6.3272      6.0889      5.7875      5.4657      5.1479      4.8686      4.6586      4.5269    
  4.4621      4.4402      4.4368      4.4368      4.4402      4.4621      4.5269      4.6586      4.8686      5.1479    
  6.6419      7.2938      7.8569      8.2369      8.3707      8.2369      7.8570      7.2938      6.6419      5.9996    
  5.4268      4.9264      4.5269      4.2479      4.0790      3.9944      3.9694      3.9944      4.0791      4.2479    
  4.5270      4.9264      5.4268      5.9996      8.8987      9.9774      10.794      11.231      11.231      10.794    
  9.9774      8.8986      7.7243      6.6283      5.7257      5.0162      4.4621      4.0791      3.8520      3.7498    
  3.7499      3.8521      4.0791      4.4620      5.0162      5.7257      6.6282      7.7242      12.567      14.020    
  14.962      15.286      14.962      14.020      12.567      10.791      8.9492      7.3028      6.0226      5.1091    
  4.4402      3.9944      3.7498      3.6732      3.7499      3.9944      4.4402      5.1091      6.0226      7.3027    
  8.9492      10.791      17.628      19.283      20.149      20.149      19.283      17.628      15.354      12.740    
  10.145      7.9177      6.2695      5.1779      4.4368      3.9694      3.7499      3.7498      3.9693      4.4368    
  5.1780      6.2694      7.9176      10.145      12.740      15.354      23.787      25.433      25.999      25.433    
  23.787      21.210      17.970      14.448      11.103      8.3511      6.4108      5.2035      4.4368      3.9944    
  3.8521      3.9944      4.4368      5.2035      6.4108      8.3511      11.103      14.448      17.970      21.210    
  30.651      32.071      32.071      30.651      27.965      24.292      20.016      15.620      11.636      8.5076    
  6.4108      5.1780      4.4402      4.0791      4.0791      4.4402      5.1780      6.4108      8.5075      11.636    
  15.620      20.016      24.292      27.965      37.784      38.695      37.784      35.184      31.239      26.393    
  21.142      16.037      11.636      8.3511      6.2694      5.1090      4.4621      4.2480      4.4621      5.1090    
  6.2694      8.3512      11.636      16.037      21.142      26.393      31.239      35.184      44.562      44.562    
  42.353      38.322      33.053      27.141      21.142      15.620      11.103      7.9177      6.0227      5.0161    
  4.5268      4.5270      5.0163      6.0225      7.9175      11.103      15.620      21.142      27.140      33.053    
  38.322      42.353      50.049      48.696      44.927      39.449      33.053      26.393      20.016      14.448    
  10.145      7.3027      5.7259      4.9264      4.6584      4.9264      5.7259      7.3027      10.145      14.448    
  20.016      26.393      33.053      39.449      44.927      48.696      53.168      50.197      44.927      38.322    
  31.239      24.292      17.970      12.740      8.9490      6.6281      5.4270      4.8688      4.8685      5.4267    
  6.6284      8.9493      12.740      17.970      24.292      31.239      38.322      44.926      50.198      53.168    
  53.168      48.696      42.353      35.185      27.965      21.210      15.354      10.792      7.7243      5.9994    
  5.1479      4.8639      5.1479      5.9993      7.7243      10.792      15.354      21.210      27.965      35.185    
  42.353      48.696      53.168      54.794      40.991      35.835      29.884      23.787      18.055      13.138    
  9.3939      6.9453      5.5785      4.8557      4.6127      4.8557      5.5785      6.9453      9.3939      13.138    
  18.055      23.787      29.884      35.835      40.991      44.562      45.848      44.562      35.835      30.542    
  24.839      19.283      14.334      10.368      7.5965      5.9395      5.0325      4.5846      4.5844      5.0323    
  5.9396      7.5967      10.368      14.334      19.284      24.839      30.542      35.835      40.017      42.353    
  42.353      40.017      29.884      24.839      19.703      14.962      11.009      8.0988      6.2491      5.1968    
  4.5989      4.4007      4.5989      5.1968      6.2491      8.0988      11.009      14.962      19.703      24.839    
  29.884      34.242      37.245      38.322      37.245      34.242      23.787      19.283      14.962      11.231    
  8.3706      6.4592      5.3220      4.6336      4.2948      4.2949      4.6337      5.3220      6.4591      8.3707    
  11.231      14.962      19.283      23.787      27.965      31.239      33.053      33.053      31.239      27.965    
  18.055      14.334      11.009      8.3707      6.5336      5.3899      4.6656      4.2450      4.1093      4.2450    
  4.6656      5.3899      6.5336      8.3707      11.009      14.334      18.055      21.759      24.955      27.140    
  27.919      27.140      24.955      21.759      13.138      10.368      8.0987      6.4591      5.3899      4.6783    
  4.2275      4.0152      4.0153      4.2275      4.6782      5.3899      6.4592      8.0987      10.368      13.138    
  16.123      18.935      21.142      22.361      22.362      21.142      18.935      16.123      9.3941      7.5966    