unknown system                          
   1.00000000000000     
     2.475581    0.000000    0.000000
     1.237790    2.143916    0.000000
     1.237790    0.714639    2.021303
   Pd
     1
Direct
  0.000000  0.000000  0.000000
 
   24   24   24
 0.66744506025E+02 0.64501837132E+02 0.58421151611E+02 0.50049444609E+02 0.40990119582E+02
 0.32293015642E+02 0.24441808039E+02 0.17707542828E+02 0.12384732234E+02 0.86968570762E+01
 0.65671020066E+01 0.55588479302E+01 0.52340253523E+01 0.55588479302E+01 0.65671020066E+01
 0.86968570762E+01 0.12384732234E+02 0.17707542828E+02 0.24441808039E+02 0.32293015642E+02
 0.40990119582E+02 0.50049444609E+02 0.58421151611E+02 0.64501837132E+02 0.64501591455E+02
 0.60346861931E+02 0.53168086492E+02 0.44562265149E+02 0.35835059965E+02 0.27705690440E+02
 0.20520956608E+02 0.14573506924E+02 0.10154514734E+02 0.73542352371E+01 0.58983141744E+01
 0.52664950642E+01 0.52659857429E+01 0.58977953206E+01 0.73547273846E+01 0.10155029829E+02
 0.14573026760E+02 0.20520458579E+02 0.27706187920E+02 0.35835585867E+02 0.44561806924E+02
 0.53167588631E+02 0.60347316905E+02 0.64502062091E+02 0.58420787009E+02 0.53167541707E+02
 0.45848192535E+02 0.37784051545E+02 0.29883753554E+02 0.22643375406E+02 0.16408957492E+02
 0.11517076536E+02 0.81755166964E+01 0.62705768114E+01 0.53518787030E+01 0.50493903835E+01
 0.53518684623E+01 0.62705603635E+01 0.81755002072E+01 0.11517067007E+02 0.16408959735E+02
 0.22643391606E+02 0.29883781278E+02 0.37784085992E+02 0.45848227007E+02 0.53167569042E+02
 0.58420802079E+02 0.60347370336E+02 0.50049606120E+02 0.44561857960E+02 0.37783590925E+02
 0.30650961680E+02 0.23786754575E+02 0.17627981591E+02 0.12567287670E+02 0.88988287045E+01
 0.66420374495E+01 0.54655052410E+01 0.49166000338E+01 0.49169239230E+01 0.54658231288E+01
 0.66416917645E+01 0.88984700194E+01 0.12567585074E+02 0.17628306016E+02 0.23786453829E+02
 0.30650667757E+02 0.37783955168E+02 0.44562247403E+02 0.50049356980E+02 0.53167706639E+02
 0.53167995820E+02 0.40990632126E+02 0.35835305642E+02 0.29883605612E+02 0.23786593063E+02
 0.18055248069E+02 0.13138274742E+02 0.93939301099E+01 0.69452858039E+01 0.55785400475E+01
 0.48557161844E+01 0.46126931177E+01 0.48557170232E+01 0.55785376496E+01 0.69452758901E+01
 0.93939126144E+01 0.13138256623E+02 0.18055241129E+02 0.23786607360E+02 0.29883644544E+02
 0.35835360614E+02 0.40990685486E+02 0.44562085891E+02 0.45848079065E+02 0.44562052601E+02
 0.32293066092E+02 0.27705986566E+02 0.22643624064E+02 0.17628092653E+02 0.13138325192E+02
 0.95701601291E+01 0.71163343954E+01 0.56633377277E+01 0.48390072019E+01 0.44300385339E+01
 0.44299472551E+01 0.48389268796E+01 0.56634544965E+01 0.71164413359E+01 0.95700577490E+01
 0.13138218498E+02 0.17628189274E+02 0.22643731653E+02 0.27705907964E+02 0.32292993359E+02
 0.35835411063E+02 0.37783844106E+02 0.37783736433E+02 0.35835289740E+02 0.24441443438E+02
 0.20520721236E+02 0.16408957492E+02 0.12567438877E+02 0.93940780517E+01 0.71163951506E+01
 0.56952185848E+01 0.48390012202E+01 0.43391839591E+01 0.41764133298E+01 0.43392019429E+01
 0.48390292842E+01 0.56952449058E+01 0.71164107649E+01 0.93940808029E+01 0.12567433236E+02
 0.16408953351E+02 0.20520724639E+02 0.24441455856E+02 0.27705948108E+02 0.29883792486E+02
 0.30650839574E+02 0.29883781278E+02 0.27705931937E+02 0.17707562691E+02 0.14573241384E+02
 0.11516757564E+02 0.88986870555E+01 0.69453056667E+01 0.56633683146E+01 0.48389916627E+01
 0.43126581500E+01 0.40620831280E+01 0.40620447317E+01 0.43126260970E+01 0.48390525091E+01
 0.56634362750E+01 0.69452839655E+01 0.88986465393E+01 0.11516791338E+02 0.14573291231E+02
 0.17707545289E+02 0.20520694470E+02 0.22643701066E+02 0.23786627223E+02 0.23786595478E+02
 0.22643670852E+02 0.20520724119E+02 0.12385139651E+02 0.10154760411E+02 0.81754738806E+01
 0.66418759377E+01 0.55784349216E+01 0.48389567521E+01 0.43391411433E+01 0.40620632652E+01
 0.39748463425E+01 0.40620605499E+01 0.43391396568E+01 0.48389614534E+01 0.55784493979E+01
 0.66418973594E+01 0.81754981734E+01 0.10154778864E+02 0.12385148087E+02 0.14573271368E+02
 0.16408910535E+02 0.17628138824E+02 0.18055136003E+02 0.17628144504E+02 0.16408916919E+02
 0.14573272437E+02 0.86968844915E+01 0.73545083295E+01 0.62708485047E+01 0.54656393376E+01
 0.48557435997E+01 0.44300154994E+01 0.41763756092E+01 0.40620371792E+01 0.40620879652E+01
 0.41764164177E+01 0.44299364687E+01 0.48556674084E+01 0.54656978367E+01 0.62709349984E+01
 0.73544901346E+01 0.86968442295E+01 0.10154806280E+02 0.11516798890E+02 0.12567416126E+02
 0.13138241533E+02 0.13138284038E+02 0.12567450977E+02 0.11516740483E+02 0.10154756737E+02
 0.65667374048E+01 0.58980934494E+01 0.53518787030E+01 0.49167365935E+01 0.46128410595E+01
 0.44300226571E+01 0.43392019429E+01 0.43126210077E+01 0.43391824727E+01 0.44299888361E+01
 0.46128033138E+01 0.49167034919E+01 0.53518608901E+01 0.58980955237E+01 0.65667580403E+01
 0.73544925977E+01 0.81755409893E+01 0.88986913543E+01 0.93940808029E+01 0.95700832467E+01
 0.93940605562E+01 0.88986564835E+01 0.81755002072E+01 0.73544567553E+01 0.55588398592E+01
 0.52662574581E+01 0.50490993459E+01 0.49167543401E+01 0.48557089522E+01 0.48389854004E+01
 0.48390476605E+01 0.48390245753E+01 0.48389533824E+01 0.48557028947E+01 0.49167365151E+01
 0.50490360308E+01 0.52661998158E+01 0.55588481547E+01 0.58980786425E+01 0.62708995121E+01
 0.66418892885E+01 0.69453118993E+01 0.71164085305E+01 0.71163828151E+01 0.69452678191E+01
 0.66418613473E+01 0.62708675431E+01 0.58980329267E+01 0.52343840239E+01 0.52662314200E+01
 0.53518743924E+01 0.54656616169E+01 0.55783837776E+01 0.56634040467E+01 0.56952508360E+01
 0.56634164122E+01 0.55784006518E+01 0.54656704214E+01 0.53518668202E+01 0.52662078868E+01
 0.52343537896E+01 0.52662078868E+01 0.53518668202E+01 0.54656704214E+01 0.55784006518E+01
 0.56634164122E+01 0.56952508360E+01 0.56634040467E+01 0.55783837776E+01 0.54656616169E+01
 0.53518743924E+01 0.52662314200E+01 0.55588398592E+01 0.58980329267E+01 0.62708675431E+01
 0.66418613473E+01 0.69452678191E+01 0.71163828151E+01 0.71164085305E+01 0.69453118993E+01
 0.66418892885E+01 0.62708995121E+01 0.58980786425E+01 0.55588481547E+01 0.52661998158E+01
 0.50490360308E+01 0.49167365151E+01 0.48557028947E+01 0.48389533824E+01 0.48390245753E+01
 0.48390476605E+01 0.48389854004E+01 0.48557089522E+01 0.49167543401E+01 0.50490993459E+01
 0.52662574581E+01 0.65667374048E+01 0.73544567553E+01 0.81755002072E+01 0.88986564835E+01
 0.93940605562E+01 0.95700832467E+01 0.93940808029E+01 0.88986913543E+01 0.81755409893E+01
 0.73544925977E+01 0.65667580403E+01 0.58980955237E+01 0.53518608901E+01 0.49167034919E+01
 0.46128033138E+01 0.44299888361E+01 0.43391824727E+01 0.43126210077E+01 0.43392019429E+01
 0.44300226571E+01 0.46128410595E+01 0.49167365935E+01 0.53518787030E+01 0.58980934494E+01
 0.86968844915E+01 0.10154756737E+02 0.11516740483E+02 0.12567450977E+02 0.13138284038E+02
 0.13138241533E+02 0.12567416126E+02 0.11516798890E+02 0.10154806280E+02 0.86968442295E+01
 0.73544901346E+01 0.62709349984E+01 0.54656978367E+01 0.48556674084E+01 0.44299364687E+01
 0.41764164177E+01 0.40620879652E+01 0.40620371792E+01 0.41763756092E+01 0.44300154994E+01
 0.48557435997E+01 0.54656393376E+01 0.62708485047E+01 0.73545083295E+01 0.12385139651E+02
 0.14573272437E+02 0.16408916919E+02 0.17628144504E+02 0.18055136003E+02 0.17628138824E+02
 0.16408910535E+02 0.14573271368E+02 0.12385148087E+02 0.10154778864E+02 0.81754981734E+01
 0.66418973594E+01 0.55784493979E+01 0.48389614534E+01 0.43391396568E+01 0.40620605499E+01
 0.39748463425E+01 0.40620632652E+01 0.43391411433E+01 0.48389567521E+01 0.55784349216E+01
 0.66418759377E+01 0.81754738806E+01 0.10154760411E+02 0.17707562691E+02 0.20520724119E+02
 0.22643670852E+02 0.23786595478E+02 0.23786627223E+02 0.22643701066E+02 0.20520694470E+02
 0.17707545289E+02 0.14573291231E+02 0.11516791338E+02 0.88986465393E+01 0.69452839655E+01
 0.56634362750E+01 0.48390525091E+01 0.43126260970E+01 0.40620447317E+01 0.40620831280E+01
 0.43126581500E+01 0.48389916627E+01 0.56633683146E+01 0.69453056667E+01 0.88986870555E+01
 0.11516757564E+02 0.14573241384E+02 0.24441443438E+02 0.27705931937E+02 0.29883781278E+02
 0.30650839574E+02 0.29883792486E+02 0.27705948108E+02 0.24441455856E+02 0.20520724639E+02
 0.16408953351E+02 0.12567433236E+02 0.93940808029E+01 0.71164107649E+01 0.56952449058E+01
 0.48390292842E+01 0.43392019429E+01 0.41764133298E+01 0.43391839591E+01 0.48390012202E+01
 0.56952185848E+01 0.71163951506E+01 0.93940780517E+01 0.12567438877E+02 0.16408957492E+02
 0.20520721236E+02 0.32293066092E+02 0.35835289740E+02 0.37783736433E+02 0.37783844106E+02
 0.35835411063E+02 0.32292993359E+02 0.27705907964E+02 0.22643731653E+02 0.17628189274E+02
 0.13138218498E+02 0.95700577490E+01 0.71164413359E+01 0.56634544965E+01 0.48389268796E+01
 0.44299472551E+01 0.44300385339E+01 0.48390072019E+01 0.56633377277E+01 0.71163343954E+01
 0.95701601291E+01 0.13138325192E+02 0.17628092653E+02 0.22643624064E+02 0.27705986566E+02
 0.40990632126E+02 0.44562052601E+02 0.45848079065E+02 0.44562085891E+02 0.40990685486E+02
 0.35835360614E+02 0.29883644544E+02 0.23786607360E+02 0.18055241129E+02 0.13138256623E+02
 0.93939126144E+01 0.69452758901E+01 0.55785376496E+01 0.48557170232E+01 0.46126931177E+01
 0.48557161844E+01 0.55785400475E+01 0.69452858039E+01 0.93939301099E+01 0.13138274742E+02
 0.18055248069E+02 0.23786593063E+02 0.29883605612E+02 0.35835305642E+02 0.50049606120E+02
 0.53167995820E+02 0.53167706639E+02 0.50049356980E+02 0.44562247403E+02 0.37783955168E+02
 0.30650667757E+02 0.23786453829E+02 0.17628306016E+02 0.12567585074E+02 0.88984700194E+01
 0.66416917645E+01 0.54658231288E+01 0.49169239230E+01 0.49166000338E+01 0.54655052410E+01
 0.66420374495E+01 0.88988287045E+01 0.12567287670E+02 0.17627981591E+02 0.23786754575E+02
 0.30650961680E+02 0.37783590925E+02 0.44561857960E+02 0.58420787009E+02 0.60347370336E+02
 0.58420802079E+02 0.53167569042E+02 0.45848227007E+02 0.37784085992E+02 0.29883781278E+02
 0.22643391606E+02 0.16408959735E+02 0.11517067007E+02 0.81755002072E+01 0.62705603635E+01
 0.53518684623E+01 0.50493903835E+01 0.53518787030E+01 0.62705768114E+01 0.81755166964E+01
 0.11517076536E+02 0.16408957492E+02 0.22643375406E+02 0.29883753554E+02 0.37784051545E+02
 0.45848192535E+02 0.53167541707E+02 0.64501591455E+02 0.64502062091E+02 0.60347316905E+02
 0.53167588631E+02 0.44561806924E+02 0.35835585867E+02 0.27706187920E+02 0.20520458579E+02
 0.14573026760E+02 0.10155029829E+02 0.73547273846E+01 0.58977953206E+01 0.52659857429E+01
 0.52664950642E+01 0.58983141744E+01 0.73542352371E+01 0.10154514734E+02 0.14573506924E+02
 0.20520956608E+02 0.27705690440E+02 0.35835059965E+02 0.44562265149E+02 0.53168086492E+02
 0.60346861931E+02 0.64501591455E+02 0.60346861931E+02 0.53168086492E+02 0.44562265149E+02
 0.35835059965E+02 0.27705690440E+02 0.20520956608E+02 0.14573506924E+02 0.10154514734E+02
 0.73542352371E+01 0.58983141744E+01 0.52664950642E+01 0.52659857429E+01 0.58977953206E+01
 0.73547273846E+01 0.10155029829E+02 0.14573026760E+02 0.20520458579E+02 0.27706187920E+02
 0.35835585867E+02 0.44561806924E+02 0.53167588631E+02 0.60347316905E+02 0.64502062091E+02
 0.60347113305E+02 0.54793198347E+02 0.47099134740E+02 0.38694792950E+02 0.30542394471E+02
 0.23130405617E+02 0.16768924433E+02 0.11768155115E+02 0.83341557529E+01 0.63662929479E+01
 0.54230936941E+01 0.51144501374E+01 0.54230806131E+01 0.63662779398E+01 0.83341524777E+01
 0.11768165383E+02 0.16768937926E+02 0.23130423818E+02 0.30542431157E+02 0.38694843639E+02
 0.47099158389E+02 0.54793169467E+02 0.60347069622E+02 0.62389524659E+02 0.53168030457E+02
 0.47098950303E+02 0.39709164180E+02 0.32070841255E+02 0.24839021874E+02 0.18408890308E+02
 0.13122755720E+02 0.92595356064E+01 0.68567212638E+01 0.56056275756E+01 0.50342726921E+01
 0.50346471475E+01 0.56059947176E+01 0.68563245700E+01 0.92591345456E+01 0.13123120419E+02
 0.18409280659E+02 0.24838681868E+02 0.32070508130E+02 0.39709579270E+02 0.47099359383E+02
 0.53167678132E+02 0.56646279517E+02 0.56646646684E+02 0.44562208910E+02 0.38694471855E+02
 0.32070462374E+02 0.25433339636E+02 0.19283645246E+02 0.14020420694E+02 0.99772141722E+01
 0.72938276773E+01 0.57876783682E+01 0.50156435200E+01 0.47556830769E+01 0.50156284272E+01
 0.57876585161E+01 0.72938068619E+01 0.99771889889E+01 0.14020398342E+02 0.19283641451E+02
 0.25433363267E+02 0.32070508948E+02 0.38694535580E+02 0.44562279302E+02 0.48695992379E+02
 0.50197366439E+02 0.48695942741E+02 0.35835386466E+02 0.30542472455E+02 0.24838751822E+02
 0.19283372541E+02 0.14333903026E+02 0.10368484392E+02 0.75965198576E+01 0.59394650090E+01
 0.50324929379E+01 0.45845858420E+01 0.45844194463E+01 0.50323231629E+01 0.59396218470E+01
 0.75966741340E+01 0.10368302241E+02 0.14333714999E+02 0.19283525132E+02 0.24838938829E+02
 0.30542362868E+02 0.35835278856E+02 0.40017039010E+02 0.42353267739E+02 0.42353093343E+02
 0.40016840038E+02 0.27705939542E+02 0.23130771337E+02 0.18409075906E+02 0.14020374959E+02
 0.10368404136E+02 0.77048031392E+01 0.60270364746E+01 0.50566215624E+01 0.44961305626E+01
 0.43116346446E+01 0.44961411622E+01 0.50566384225E+01 0.60270483230E+01 0.77048012528E+01
 0.10368392685E+02 0.14020368461E+02 0.18409080509E+02 0.23130782306E+02 0.27705951425E+02
 0.31596976351E+02 0.34242535285E+02 0.35184553149E+02 0.34242526847E+02 0.31596964471E+02
 0.20520715512E+02 0.16768921729E+02 0.13122939254E+02 0.99774097942E+01 0.75966048486E+01
 0.60270326083E+01 0.50673297192E+01 0.44614918670E+01 0.41686147638E+01 0.41686125478E+01
 0.44615001881E+01 0.50673599803E+01 0.60270583218E+01 0.75966044907E+01 0.99774022466E+01
 0.13122946764E+02 0.16768929770E+02 0.20520705356E+02 0.23929082801E+02 0.26541145244E+02
 0.27964906716E+02 0.27964898352E+02 0.26541138042E+02 0.23929093450E+02 0.14573292486E+02
 0.11767832843E+02 0.92593141400E+01 0.72938280696E+01 0.59395795149E+01 0.50566661210E+01
 0.44614536597E+01 0.41251443954E+01 0.40182030672E+01 0.41251493698E+01 0.44614615293E+01
 0.50566775256E+01 0.59395932335E+01 0.72938397239E+01 0.92593214394E+01 0.11767839925E+02
 0.14573303310E+02 0.17326876456E+02 0.19652476272E+02 0.21210478466E+02 0.21759280890E+02
 0.21210490756E+02 0.19652484631E+02 0.17326870882E+02 0.10154789753E+02 0.83341817548E+01
 0.68565030734E+01 0.57874580248E+01 0.50324414561E+01 0.44961588365E+01 0.41685816345E+01
 0.40181409232E+01 0.40181999829E+01 0.41686378713E+01 0.44960885767E+01 0.50323707438E+01
 0.57875207957E+01 0.68565884578E+01 0.83341592629E+01 0.10154753154E+02 0.12116352609E+02
 0.13943165480E+02 0.15354305717E+02 0.16123201545E+02 0.16123263338E+02 0.15354373607E+02
 0.13943117576E+02 0.12116293378E+02 0.73544849552E+01 0.63666465433E+01 0.56058136439E+01
 0.50156109950E+01 0.45845062020E+01 0.43116225195E+01 0.41686168837E+01 0.41251180217E+01
 0.41686102133E+01 0.43115978565E+01 0.45844684014E+01 0.50155868170E+01 0.56058239434E+01
 0.63666780289E+01 0.73545149535E+01 0.85245186466E+01 0.97338978600E+01 0.10791465686E+02
 0.11513377224E+02 0.11769579209E+02 0.11513373375E+02 0.10791459884E+02 0.97338903087E+01
 0.85245020295E+01 0.58980565474E+01 0.54231084492E+01 0.50344736884E+01 0.47558621701E+01
 0.45844879062E+01 0.44961547555E+01 0.44615176501E+01 0.44614832079E+01 0.44961051749E+01
 0.45844815251E+01 0.47558550203E+01 0.50344174082E+01 0.54230625050E+01 0.58980820606E+01
 0.64620253739E+01 0.70980005111E+01 0.77242838489E+01 0.82290763518E+01 0.85109913401E+01
 0.85109587149E+01 0.82290270850E+01 0.77242694584E+01 0.70979831668E+01 0.64619746939E+01
 0.52662394136E+01 0.51141280670E+01 0.50344670281E+01 0.50156287523E+01 0.50323964560E+01
 0.50566831827E+01 0.50673631201E+01 0.50566774584E+01 0.50323916752E+01 0.50156183666E+01
 0.50344370767E+01 0.51140801319E+01 0.52662001024E+01 0.54817303462E+01 0.57331652043E+01
 0.59996246903E+01 0.62483723451E+01 0.64276844319E+01 0.64931750315E+01 0.64276644202E+01
 0.62483366598E+01 0.59995830586E+01 0.57331366395E+01 0.54817347396E+01 0.52662271837E+01
 0.54230736528E+01 0.56058093116E+01 0.57874703408E+01 0.59395367867E+01 0.60270436347E+01
 0.60270579769E+01 0.59395632575E+01 0.57874872171E+01 0.56058186392E+01 0.54230786911E+01
 0.52662113391E+01 0.51635430401E+01 0.51269133094E+01 0.51478656451E+01 0.52023699049E+01
 0.52606217435E+01 0.52972747491E+01 0.52972781316E+01 0.52606204653E+01 0.52023594322E+01
 0.51478704339E+01 0.51269483022E+01 0.51635837349E+01 0.58980434930E+01 0.63665837073E+01
 0.68565107320E+01 0.72938207128E+01 0.75965929484E+01 0.77047412998E+01 0.75966089202E+01
 0.72938547516E+01 0.68565592541E+01 0.63666302010E+01 0.58980690306E+01 0.54817451723E+01
 0.51269170679E+01 0.48635645361E+01 0.46977835485E+01 0.46117670932E+01 0.45768357121E+01
 0.45683712443E+01 0.45768457494E+01 0.46117943477E+01 0.46978290267E+01 0.48636157058E+01
 0.51269553713E+01 0.54817525192E+01 0.73545019990E+01 0.83341316323E+01 0.92593016209E+01
 0.99774020032E+01 0.10368402942E+02 0.10368370678E+02 0.99773857875E+01 0.92593770390E+01
 0.83342081026E+01 0.73544924766E+01 0.64619914529E+01 0.57331794568E+01 0.51478817004E+01
 0.46977609780E+01 0.43959573341E+01 0.42231329565E+01 0.41477201218E+01 0.41476850617E+01
 0.42231157813E+01 0.43960396700E+01 0.46978442912E+01 0.51478600251E+01 0.57331294578E+01
 0.64620086149E+01 0.10154823183E+02 0.11767841134E+02 0.13122889843E+02 0.14020399393E+02
 0.14333837297E+02 0.14020411043E+02 0.13122899447E+02 0.11767840584E+02 0.10154823090E+02
 0.85245480181E+01 0.70979697229E+01 0.59996254163E+01 0.52024076729E+01 0.46117500889E+01
 0.42230682473E+01 0.40124217767E+01 0.39469753020E+01 0.40124342418E+01 0.42230866610E+01
 0.46117622113E+01 0.52023989163E+01 0.59995971822E+01 0.70979384642E+01 0.85245313517E+01
 0.14573303242E+02 0.16768963802E+02 0.18409059417E+02 0.19283419645E+02 0.19283475113E+02
 0.18409108657E+02 0.16768893589E+02 0.14573239703E+02 0.12116354072E+02 0.97339253924E+01
 0.77242641996E+01 0.62483499511E+01 0.52606567848E+01 0.45768647902E+01 0.41476682310E+01
 0.39469039033E+01 0.39469697117E+01 0.41477336675E+01 0.45767922514E+01 0.52605667508E+01
 0.62483808004E+01 0.77243062095E+01 0.97338569755E+01 0.12116291915E+02 0.20520708320E+02
 0.23130767087E+02 0.24838866596E+02 0.25433339751E+02 0.24838859211E+02 0.23130759854E+02
 0.20520708352E+02 0.17326854116E+02 0.13943137844E+02 0.10791455359E+02 0.82290618879E+01
 0.64276618913E+01 0.52972800758E+01 0.45684087454E+01 0.41477061984E+01 0.40124138793E+01
 0.41477061575E+01 0.45683892862E+01 0.52972404826E+01 0.64276314474E+01 0.82290593489E+01
 0.10791469270E+02 0.13943144711E+02 0.17326851228E+02 0.27705957909E+02 0.30542417732E+02
 0.32070680761E+02 0.32070715474E+02 0.30542458945E+02 0.27705936837E+02 0.23929071898E+02
 0.19652525383E+02 0.15354349932E+02 0.11513362167E+02 0.85109629747E+01 0.64931827951E+01
 0.52972895622E+01 0.45768305988E+01 0.42231213370E+01 0.42231448814E+01 0.45768395175E+01
 0.52972267658E+01 0.64931235575E+01 0.85109844704E+01 0.11513407098E+02 0.15354343140E+02
 0.19652511106E+02 0.23929104354E+02 0.35835423778E+02 0.38694521019E+02 0.39709305223E+02
 0.38694536089E+02 0.35835445710E+02 0.31597020562E+02 0.26541054455E+02 0.21210478582E+02
 0.16123316038E+02 0.11769610209E+02 0.85108844552E+01 0.64276646035E+01 0.52607027902E+01
 0.46117789716E+01 0.43959314893E+01 0.46117616686E+01 0.52606827065E+01 0.64276534381E+01
 0.85108827786E+01 0.11769617185E+02 0.16123330658E+02 0.21210494524E+02 0.26541058236E+02
 0.31597006461E+02 0.44562168863E+02 0.47099270982E+02 0.47099053065E+02 0.44561971159E+02
 0.40017074447E+02 0.34242650150E+02 0.27964785459E+02 0.21759130946E+02 0.16123350258E+02
 0.11513487624E+02 0.82289223585E+01 0.62482279287E+01 0.52024799305E+01 0.46979448217E+01
 0.46977073233E+01 0.52022411806E+01 0.62484662574E+01 0.82291735757E+01 0.11513274755E+02
 0.16123128366E+02 0.21759363369E+02 0.27965006349E+02 0.34242391597E+02 0.40016804600E+02
 0.53167837170E+02 0.54793731626E+02 0.53167863278E+02 0.48695749188E+02 0.42353186919E+02
 0.35184749588E+02 0.27964901765E+02 0.21210248742E+02 0.15354344769E+02 0.10791668448E+02
 0.77242554125E+01 0.59993408431E+01 0.51478745581E+01 0.48638720973E+01 0.51478815797E+01
 0.59993571448E+01 0.77242774970E+01 0.10791688161E+02 0.15354357275E+02 0.21210252859E+02
 0.27964890920E+02 0.35184718056E+02 0.42353139508E+02 0.48695703804E+02 0.60346854235E+02
 0.60347286077E+02 0.56646683280E+02 0.50197341556E+02 0.42352956760E+02 0.34242742141E+02
 0.26541358271E+02 0.19652302334E+02 0.13942929132E+02 0.97341051329E+01 0.70981859343E+01
 0.57329129950E+01 0.51267270731E+01 0.51271701019E+01 0.57333661463E+01 0.70977652764E+01
 0.97336715819E+01 0.13943360875E+02 0.19652742239E+02 0.26540928520E+02 0.34242291281E+02
 0.42353355254E+02 0.50197747251E+02 0.56646242920E+02 0.64501469066E+02 0.62389200373E+02
 0.56646802462E+02 0.48695943805E+02 0.40016575958E+02 0.31597007016E+02 0.23929432487E+02
 0.17326871553E+02 0.12115976935E+02 0.85245313641E+01 0.64623302592E+01 0.54817354779E+01
 0.51632351246E+01 0.54817354779E+01 0.64623302592E+01 0.85245313641E+01 0.12115976935E+02
 0.17326871553E+02 0.23929432487E+02 0.31597007016E+02 0.40016575958E+02 0.48695943805E+02
 0.56646802462E+02 0.62389200373E+02 0.58420787009E+02 0.53167541707E+02 0.45848192535E+02
 0.37784051545E+02 0.29883753554E+02 0.22643375406E+02 0.16408957492E+02 0.11517076536E+02
 0.81755166964E+01 0.62705768114E+01 0.53518787030E+01 0.50493903835E+01 0.53518684623E+01
 0.62705603635E+01 0.81755002072E+01 0.11517067007E+02 0.16408959735E+02 0.22643391606E+02
 0.29883781278E+02 0.37784085992E+02 0.45848227007E+02 0.53167569042E+02 0.58420802079E+02
 0.60347370336E+02 0.53168030457E+02 0.47098950303E+02 0.39709164180E+02 0.32070841255E+02
 0.24839021874E+02 0.18408890308E+02 0.13122755720E+02 0.92595356064E+01 0.68567212638E+01
 0.56056275756E+01 0.50342726921E+01 0.50346471475E+01 0.56059947176E+01 0.68563245700E+01
 0.92591345456E+01 0.13123120419E+02 0.18409280659E+02 0.24838681868E+02 0.32070508130E+02
 0.39709579270E+02 0.47099359383E+02 0.53167678132E+02 0.56646279517E+02 0.56646646684E+02
 0.45848401034E+02 0.39709352387E+02 0.32832884589E+02 0.25998766304E+02 0.19703115706E+02
 0.14323438862E+02 0.10180201563E+02 0.74166042164E+01 0.58609212414E+01 0.50713202814E+01
 0.48056571442E+01 0.50713087112E+01 0.58609001288E+01 0.74165785159E+01 0.10180178121E+02
 0.14323426412E+02 0.19703120424E+02 0.25998792661E+02 0.32832928163E+02 0.39709404021E+02
 0.45848447567E+02 0.50197558649E+02 0.51781616516E+02 0.50197531693E+02 0.37783849080E+02
 0.32070751127E+02 0.25998668225E+02 0.20149373803E+02 0.14961815309E+02 0.10794037798E+02
 0.78568692323E+01 0.60888007528E+01 0.51349863182E+01 0.46672257630E+01 0.46670262548E+01
 0.51347788577E+01 0.60889777204E+01 0.78570409310E+01 0.10793816401E+02 0.14961597683E+02
 0.20149558891E+02 0.25998875216E+02 0.32070593193E+02 0.37783708825E+02 0.42353288066E+02
 0.44926705952E+02 0.44926489636E+02 0.42353041619E+02 0.29883753554E+02 0.24838903296E+02
 0.19702907208E+02 0.14961647602E+02 0.11008600779E+02 0.80987746136E+01 0.62490567589E+01
 0.51968177950E+01 0.45989351651E+01 0.44006939062E+01 0.45989400344E+01 0.51968218634E+01
 0.62490525772E+01 0.80987584231E+01 0.11008574915E+02 0.14961621890E+02 0.19702891279E+02
 0.24838904260E+02 0.29883769431E+02 0.34242458153E+02 0.37244936399E+02 0.38321746085E+02
 0.37244922127E+02 0.34242437209E+02 0.22643666939E+02 0.18409087525E+02 0.14323447873E+02
 0.10793930709E+02 0.80986959742E+01 0.63067886552E+01 0.52342202598E+01 0.45735933223E+01
 0.42504602765E+01 0.42504847890E+01 0.45736282582E+01 0.52342219740E+01 0.63067833048E+01
 0.80987122502E+01 0.10793932541E+02 0.14323408498E+02 0.18409050409E+02 0.22643666404E+02
 0.26541130831E+02 0.29570369048E+02 0.31238909502E+02 0.31238938153E+02 0.29570410226E+02
 0.26541135066E+02 0.16408982002E+02 0.13122943926E+02 0.10180385551E+02 0.78569673108E+01
 0.62490812692E+01 0.52342112490E+01 0.45680758891E+01 0.41858866823E+01 0.40634053391E+01
 0.41858981649E+01 0.45680957559E+01 0.52342345258E+01 0.62491006677E+01 0.78569777573E+01
 0.10180381906E+02 0.13122926014E+02 0.16408953218E+02 0.19652493471E+02 0.22419420656E+02
 0.24291749571E+02 0.24955319994E+02 0.24291766376E+02 0.22419449400E+02 0.19652526682E+02
 0.11516804444E+02 0.92593758528E+01 0.74165757633E+01 0.60888703783E+01 0.51969158767E+01
 0.45736307862E+01 0.41858582292E+01 0.40055372390E+01 0.40055944579E+01 0.41859179657E+01
 0.45735814668E+01 0.51968730196E+01 0.60889443876E+01 0.74166476460E+01 0.92593241670E+01
 0.11516738362E+02 0.13943155876E+02 0.16209263081E+02 0.17969991968E+02 0.18934561471E+02
 0.18934620833E+02 0.17970058195E+02 0.16209223392E+02 0.13943116865E+02 0.81755166964E+01
 0.68565711343E+01 0.58607127429E+01 0.51348501627E+01 0.45989351651E+01 0.42505073644E+01
 0.40633808288E+01 0.40055279278E+01 0.40633678225E+01 0.42504888500E+01 0.45989206943E+01
 0.51348486233E+01 0.58607249537E+01 0.68565913894E+01 0.81755371445E+01 0.97338608460E+01
 0.11338299899E+02 0.12740292903E+02 0.13698782007E+02 0.14039477750E+02 0.13698787080E+02
 0.12740297959E+02 0.11338298366E+02 0.97338490620E+01 0.62708592138E+01 0.56058339241E+01
 0.50713384233E+01 0.46671095426E+01 0.44006061357E+01 0.42504939200E+01 0.41859163067E+01
 0.41858713709E+01 0.42504326311E+01 0.44006087215E+01 0.46671140794E+01 0.50712857675E+01
 0.56058040399E+01 0.62709165273E+01 0.70980236156E+01 0.80338826166E+01 0.89491834872E+01
 0.96827120044E+01 0.10091177496E+02 0.10091135503E+02 0.96826616108E+01 0.89492024179E+01
 0.80338979674E+01 0.70979626917E+01 0.53518666822E+01 0.50344608987E+01 0.48058776635E+01
 0.46671243333E+01 0.45989280136E+01 0.45736192473E+01 0.45681322870E+01 0.45736099198E+01
 0.45989086735E+01 0.46670959376E+01 0.48058450966E+01 0.50344298875E+01 0.53518486214E+01
 0.57331529166E+01 0.61656780258E+01 0.66283042437E+01 0.70528318489E+01 0.73537430785E+01
 0.74626616697E+01 0.73537194388E+01 0.70527945284E+01 0.66282673763E+01 0.61656551668E+01
 0.57331505891E+01 0.50490864759E+01 0.50344555774E+01 0.50713120746E+01 0.51348802996E+01
 0.51968881286E+01 0.52342276214E+01 0.52342378892E+01 0.51969048360E+01 0.51348833370E+01
 0.50713005460E+01 0.50344332509E+01 0.50490469171E+01 0.51269127122E+01 0.52609981728E+01
 0.54268681772E+01 0.55951508838E+01 0.57382849389E+01 0.58217787569E+01 0.58217793944E+01
 0.57382712823E+01 0.55951121526E+01 0.54268373315E+01 0.52610116013E+01 0.51269579082E+01
 0.53518684623E+01 0.56057988428E+01 0.58606916304E+01 0.60888873101E+01 0.62490525772E+01
 0.63067846474E+01 0.62490761574E+01 0.60889236028E+01 0.58607249537E+01 0.56058145136E+01
 0.53518606422E+01 0.51269237438E+01 0.49618117409E+01 0.48685791934E+01 0.48381881966E+01
 0.48467930286E+01 0.48664668486E+01 0.48756897195E+01 0.48664682689E+01 0.48467999740E+01
 0.48382065137E+01 0.48686080150E+01 0.49618446167E+01 0.51269502985E+01 0.62708748065E+01
 0.68564988779E+01 0.74165646172E+01 0.78569567512E+01 0.80987026932E+01 0.80986893406E+01
 0.78569638586E+01 0.74166330917E+01 0.68565672111E+01 0.62708844867E+01 0.57331390179E+01
 0.52610154350E+01 0.48686007603E+01 0.45842130525E+01 0.44067720431E+01 0.43135245815E+01
 0.42761654853E+01 0.42761434931E+01 0.43135191003E+01 0.44068435211E+01 0.45842943433E+01
 0.48686131935E+01 0.52609943392E+01 0.57331424509E+01 0.81755352965E+01 0.92593227523E+01
 0.10180351531E+02 0.10793914480E+02 0.11008610004E+02 0.10793923530E+02 0.10180371327E+02
 0.92593526200E+01 0.81755722338E+01 0.70980054738E+01 0.61656309158E+01 0.54268648138E+01
 0.48382232859E+01 0.44067859418E+01 0.41326038551E+01 0.39883226253E+01 0.39443255682E+01
 0.39883450192E+01 0.41326393656E+01 0.44068197763E+01 0.48382427898E+01 0.54268611278E+01
 0.61656080567E+01 0.70979703771E+01 0.11516798664E+02 0.13122964414E+02 0.14323394210E+02
 0.14961663560E+02 0.14961723720E+02 0.14323449710E+02 0.13122893813E+02 0.11516734614E+02
 0.97339311242E+01 0.80339329595E+01 0.66282720426E+01 0.55951153192E+01 0.48468175616E+01
 0.43135428839E+01 0.39882904241E+01 0.38389517112E+01 0.38390247445E+01 0.39883716792E+01
 0.43134875227E+01 0.48467421936E+01 0.55951525075E+01 0.66283075389E+01 0.80338476244E+01
 0.97338573746E+01 0.16408959735E+02 0.18409134804E+02 0.19702911926E+02 0.20149418461E+02
 0.19702891279E+02 0.18409101772E+02 0.16408928708E+02 0.13943085071E+02 0.11338299899E+02
 0.89492439812E+01 0.70528438697E+01 0.57382459502E+01 0.48664668486E+01 0.42761939387E+01
 0.39442904789E+01 0.38389501912E+01 0.39442865064E+01 0.42761839847E+01 0.48664483183E+01
 0.57382204821E+01 0.70528174915E+01 0.89492252807E+01 0.11338298366E+02 0.13943102337E+02
 0.22643678472E+02 0.24838883753E+02 0.25998806340E+02 0.25998763459E+02 0.24838820953E+02
 0.22643671072E+02 0.19652507149E+02 0.16209220950E+02 0.12740241148E+02 0.96827075407E+01
 0.73537567566E+01 0.58217684421E+01 0.48756837095E+01 0.42761710700E+01 0.39883586974E+01
 0.39883257999E+01 0.42761279544E+01 0.48756876060E+01 0.58217737267E+01 0.73537182711E+01
 0.96826839377E+01 0.12740282191E+02 0.16209265523E+02 0.19652504213E+02 0.29883806399E+02
 0.32070696336E+02 0.32833111540E+02 0.32070691272E+02 0.29883794552E+02 0.26541121820E+02
 0.22419420045E+02 0.17970020421E+02 0.13698807128E+02 0.10091159355E+02 0.74626245280E+01
 0.58217760310E+01 0.48664933899E+01 0.43135329991E+01 0.41326493339E+01 0.43135197239E+01
 0.48664734393E+01 0.58217600485E+01 0.74626209926E+01 0.10091172261E+02 0.13698832939E+02
 0.17970051570E+02 0.22419448789E+02 0.26541142714E+02 0.37783847119E+02 0.39709452735E+02
 0.39709342350E+02 0.37783745232E+02 0.34242589453E+02 0.29570439731E+02 0.24291687899E+02
 0.18934528252E+02 0.14039577498E+02 0.10091215316E+02 0.73536577673E+01 0.57382062473E+01
 0.48468539773E+01 0.44068912939E+01 0.44067581047E+01 0.48467127232E+01 0.57383245058E+01
 0.73537936208E+01 0.10091110589E+02 0.14039470255E+02 0.18934671969E+02 0.24291840457E+02