   1   1   0   0
  0.1072794E+02  0.2475581E-09  0.2475581E-09  0.2475581E-09  0.5000000E-15
  1.000000000000000E-004
  CAR 
 unknown system                          
     43.99523830      4.56068461  301     16.30329642      1.00000000
      4.561  0.0000E+00  0.0000E+00
      4.692  0.0000E+00  0.0000E+00
      4.824  0.0000E+00  0.0000E+00
      4.955 -0.4574E-30 -0.6012E-31
      5.086 -0.1044E-25 -0.1372E-26
      5.218 -0.9964E-22 -0.1310E-22
      5.349 -0.3970E-18 -0.5219E-19
      5.481 -0.6364E-15 -0.8371E-16
      5.612 -0.4338E-12 -0.5710E-13
      5.744 -0.1214E-09 -0.1602E-10
      5.875 -0.1378E-07 -0.1827E-08
      6.007 -0.6166E-06 -0.8288E-07
      6.138 -0.1018E-04 -0.1420E-05
      6.270 -0.4777E-04 -0.7700E-05
      6.401  0.7886E-04  0.2666E-05
      6.532  0.7310E-03  0.9875E-04
      6.664  0.9281E-03  0.2207E-03
      6.795  0.1615E-03  0.2420E-03
      6.927  0.6319E-03  0.3250E-03
      7.058  0.2716E-02  0.6821E-03
      7.190  0.2274E-02  0.9810E-03
      7.321  0.5020E-03  0.1047E-02
      7.453  0.2734E-02  0.1406E-02
      7.584  0.5175E-02  0.2087E-02
      7.715  0.3726E-02  0.2576E-02
      7.847  0.8629E-02  0.3711E-02
      7.978  0.1662E-01  0.5896E-02
      8.110  0.1835E-01  0.8308E-02
      8.241  0.2728E-01  0.1189E-01
      8.373  0.3874E-01  0.1699E-01
      8.504  0.3885E-01  0.2209E-01
      8.636  0.4000E-01  0.2735E-01
      8.767  0.5516E-01  0.3460E-01
      8.898  0.6408E-01  0.4302E-01
      9.030  0.6013E-01  0.5093E-01
      9.161  0.5375E-01  0.5799E-01
      9.293  0.4989E-01  0.6455E-01
      9.424  0.4534E-01  0.7051E-01
      9.556  0.3893E-01  0.7563E-01
      9.687  0.3369E-01  0.8006E-01
      9.819  0.2454E-01  0.8328E-01
      9.950  0.2221E-01  0.8620E-01
     10.082  0.3760E-01  0.9114E-01
     10.213  0.5294E-01  0.9810E-01
     10.344  0.4085E-01  0.1035E+00
     10.476  0.2359E-01  0.1066E+00
     10.607  0.3299E-01  0.1109E+00
     10.739  0.3714E-01  0.1158E+00
     10.870  0.2717E-01  0.1194E+00
     11.002  0.3006E-01  0.1233E+00
     11.133  0.3937E-01  0.1285E+00
     11.265  0.3435E-01  0.1330E+00
     11.396  0.3038E-01  0.1370E+00
     11.527  0.4486E-01  0.1429E+00
     11.659  0.5243E-01  0.1498E+00
     11.790  0.4683E-01  0.1559E+00
     11.922  0.5191E-01  0.1628E+00
     12.053  0.5973E-01  0.1706E+00
     12.185  0.5924E-01  0.1784E+00
     12.316  0.5594E-01  0.1858E+00
     12.448  0.4844E-01  0.1921E+00
     12.579  0.3895E-01  0.1972E+00
     12.710  0.3292E-01  0.2016E+00
     12.842  0.3114E-01  0.2057E+00
     12.973  0.4182E-01  0.2112E+00
     13.105  0.4628E-01  0.2172E+00
     13.236  0.3057E-01  0.2213E+00
     13.368  0.2028E-01  0.2239E+00
     13.499  0.2375E-01  0.2271E+00
     13.631  0.3367E-01  0.2315E+00
     13.762  0.4695E-01  0.2376E+00
     13.894  0.5273E-01  0.2446E+00
     14.025  0.5104E-01  0.2513E+00
     14.156  0.4082E-01  0.2567E+00
     14.288  0.2387E-01  0.2598E+00
     14.419  0.2241E-01  0.2627E+00
     14.551  0.2937E-01  0.2666E+00
     14.682  0.4109E-01  0.2720E+00
     14.814  0.4793E-01  0.2783E+00
     14.945  0.3709E-01  0.2832E+00
     15.077  0.2191E-01  0.2861E+00
     15.208  0.1294E-01  0.2878E+00
     15.339  0.2614E-01  0.2912E+00
     15.471  0.4460E-01  0.2971E+00
     15.602  0.4233E-01  0.3026E+00
     15.734  0.3163E-01  0.3068E+00
     15.865  0.2906E-01  0.3106E+00
     15.997  0.3497E-01  0.3152E+00
     16.128  0.5372E-01  0.3223E+00
     16.260  0.6511E-01  0.3308E+00
     16.391  0.5018E-01  0.3374E+00
     16.522  0.3149E-01  0.3415E+00
     16.654  0.3370E-01  0.3460E+00
     16.785  0.3363E-01  0.3504E+00
     16.917  0.1178E-01  0.3519E+00
     17.048  0.1641E-02  0.3522E+00
     17.180  0.1379E-02  0.3523E+00
     17.311  0.1286E-03  0.3524E+00
     17.443 -0.3450E-03  0.3523E+00
     17.574  0.6948E-04  0.3523E+00
     17.706  0.2025E-02  0.3526E+00
     17.837  0.6905E-02  0.3535E+00
     17.968  0.1481E-01  0.3554E+00
     18.100  0.1755E-01  0.3578E+00
     18.231  0.1294E-01  0.3595E+00
     18.363  0.5058E-02  0.3601E+00
     18.494  0.6110E-03  0.3602E+00
     18.626  0.5276E-02  0.3609E+00
     18.757  0.1000E-01  0.3622E+00
     18.889  0.6450E-02  0.3631E+00
     19.020  0.1614E-02  0.3633E+00
     19.151  0.3630E-03  0.3633E+00
     19.283  0.3920E-02  0.3638E+00
     19.414  0.5735E-02  0.3646E+00
     19.546  0.5236E-02  0.3653E+00
     19.677  0.7935E-02  0.3663E+00
     19.809  0.7137E-02  0.3673E+00
     19.940  0.7061E-02  0.3682E+00
     20.072  0.9253E-02  0.3694E+00
     20.203  0.1084E-01  0.3708E+00
     20.335  0.1118E-01  0.3723E+00
     20.466  0.6670E-02  0.3732E+00
     20.597  0.2765E-02  0.3735E+00
     20.729  0.6587E-02  0.3744E+00
     20.860  0.8269E-02  0.3755E+00
     20.992  0.2550E-02  0.3758E+00
     21.123  0.1861E-02  0.3761E+00
     21.255  0.7140E-02  0.3770E+00
     21.386  0.1208E-01  0.3786E+00
     21.518  0.1072E-01  0.3800E+00
     21.649  0.3727E-02  0.3805E+00
     21.780 -0.3075E-03  0.3804E+00
     21.912  0.3056E-02  0.3809E+00
     22.043  0.9501E-02  0.3821E+00
     22.175  0.8807E-02  0.3833E+00
     22.306  0.4201E-02  0.3838E+00
     22.438  0.5535E-02  0.3845E+00
     22.569  0.7385E-02  0.3855E+00
     22.701  0.6606E-02  0.3864E+00
     22.832  0.6158E-02  0.3872E+00
     22.963  0.8246E-02  0.3883E+00
     23.095  0.5774E-02  0.3890E+00
     23.226  0.2799E-02  0.3894E+00
     23.358  0.2319E-02  0.3897E+00
     23.489  0.5020E-03  0.3898E+00
     23.621  0.4260E-02  0.3903E+00
     23.752  0.1175E-01  0.3919E+00
     23.884  0.8512E-02  0.3930E+00
     24.015  0.4931E-02  0.3936E+00
     24.147  0.5290E-02  0.3943E+00
     24.278  0.3050E-02  0.3947E+00
     24.409  0.2824E-02  0.3951E+00
     24.541  0.1596E-02  0.3953E+00
     24.672 -0.3797E-03  0.3953E+00
     24.804 -0.1584E-03  0.3952E+00
     24.935  0.6045E-02  0.3960E+00
     25.067  0.1229E-01  0.3977E+00
     25.198  0.6399E-02  0.3985E+00
     25.330  0.5956E-04  0.3985E+00
     25.461 -0.4504E-03  0.3984E+00
     25.592 -0.1441E-03  0.3984E+00
     25.724 -0.3056E-03  0.3984E+00
     25.855  0.7032E-03  0.3985E+00
     25.987  0.4676E-02  0.3991E+00
     26.118  0.5490E-02  0.3998E+00
     26.250  0.2501E-02  0.4001E+00
     26.381  0.5968E-02  0.4009E+00
     26.513  0.1906E-01  0.4034E+00
     26.644  0.2394E-01  0.4066E+00
     26.775  0.1446E-01  0.4085E+00
     26.907  0.8089E-02  0.4095E+00
     27.038  0.6521E-02  0.4104E+00
     27.170  0.3769E-02  0.4109E+00
     27.301  0.4812E-02  0.4115E+00
     27.433  0.1459E-01  0.4134E+00
     27.564  0.2208E-01  0.4164E+00
     27.696  0.1651E-01  0.4185E+00
     27.827  0.5917E-02  0.4193E+00
     27.959  0.2393E-02  0.4196E+00
     28.090  0.8334E-03  0.4197E+00
     28.221  0.1242E-02  0.4199E+00
     28.353  0.7898E-02  0.4209E+00
     28.484  0.1104E-01  0.4224E+00
     28.616  0.1020E-01  0.4237E+00
     28.747  0.1704E-01  0.4260E+00
     28.879  0.2003E-01  0.4286E+00
     29.010  0.1023E-01  0.4299E+00
     29.142  0.8639E-03  0.4300E+00
     29.273 -0.1188E-02  0.4299E+00
     29.404 -0.2777E-03  0.4299E+00
     29.536  0.6698E-02  0.4307E+00
     29.667  0.1725E-01  0.4330E+00
     29.799  0.1568E-01  0.4351E+00
     29.930  0.6211E-02  0.4359E+00
     30.062  0.2150E-02  0.4362E+00
     30.193  0.5633E-02  0.4369E+00
     30.325  0.1177E-01  0.4385E+00
     30.456  0.1096E-01  0.4399E+00
     30.587  0.6172E-02  0.4407E+00
     30.719  0.1519E-01  0.4427E+00
     30.850  0.3645E-01  0.4475E+00
     30.982  0.3267E-01  0.4518E+00
     31.113  0.1531E-01  0.4538E+00
     31.245  0.1402E-01  0.4556E+00
     31.376  0.1908E-01  0.4581E+00
     31.508  0.1836E-01  0.4606E+00
     31.639  0.1201E-01  0.4621E+00
     31.771  0.1046E-01  0.4635E+00
     31.902  0.1425E-01  0.4654E+00
     32.033  0.1861E-01  0.4678E+00
     32.165  0.2521E-01  0.4712E+00
     32.296  0.2224E-01  0.4741E+00
     32.428  0.6858E-02  0.4750E+00
     32.559  0.1849E-02  0.4752E+00
     32.691  0.7538E-02  0.4762E+00
     32.822  0.1872E-01  0.4787E+00
     32.954  0.3182E-01  0.4829E+00
     33.085  0.2964E-01  0.4867E+00
     33.216  0.1425E-01  0.4886E+00
     33.348  0.2448E-01  0.4918E+00
     33.479  0.3988E-01  0.4971E+00
     33.611  0.2792E-01  0.5007E+00
     33.742  0.1611E-01  0.5029E+00
     33.874  0.1486E-01  0.5048E+00
     34.005  0.2212E-01  0.5077E+00
     34.137  0.2883E-01  0.5115E+00
     34.268  0.2656E-01  0.5150E+00
     34.399  0.2663E-01  0.5185E+00
     34.531  0.2961E-01  0.5224E+00
     34.662  0.2353E-01  0.5255E+00
     34.794  0.1824E-01  0.5279E+00
     34.925  0.1957E-01  0.5305E+00
     35.057  0.2726E-01  0.5340E+00
     35.188  0.3103E-01  0.5381E+00
     35.320  0.1629E-01  0.5403E+00
     35.451  0.5950E-02  0.5411E+00
     35.583  0.1099E-01  0.5425E+00
     35.714  0.2167E-01  0.5453E+00
     35.845  0.2558E-01  0.5487E+00
     35.977  0.2622E-01  0.5522E+00
     36.108  0.2288E-01  0.5552E+00
     36.240  0.9673E-02  0.5564E+00
     36.371  0.4830E-03  0.5565E+00
     36.503  0.7294E-02  0.5575E+00
     36.634  0.1905E-01  0.5600E+00
     36.766  0.1454E-01  0.5619E+00
     36.897  0.8294E-02  0.5630E+00
     37.028  0.1454E-01  0.5649E+00
     37.160  0.2154E-01  0.5677E+00
     37.291  0.2114E-01  0.5705E+00
     37.423  0.1997E-01  0.5731E+00
     37.554  0.1560E-01  0.5752E+00
     37.686  0.6294E-02  0.5760E+00
     37.817  0.1122E-02  0.5761E+00
     37.949  0.8307E-02  0.5772E+00
     38.080  0.1376E-01  0.5790E+00
     38.212  0.6980E-02  0.5800E+00
     38.343  0.2393E-02  0.5803E+00
     38.474  0.2359E-02  0.5806E+00
     38.606  0.1027E-02  0.5807E+00
     38.737  0.3619E-02  0.5812E+00
     38.869  0.9656E-02  0.5825E+00
     39.000  0.8842E-02  0.5836E+00
     39.132  0.4303E-02  0.5842E+00
     39.263  0.6721E-02  0.5851E+00
     39.395  0.8691E-02  0.5862E+00
     39.526  0.6460E-02  0.5871E+00
     39.657  0.5447E-02  0.5878E+00
     39.789  0.2351E-02  0.5881E+00
     39.920  0.2351E-02  0.5884E+00
     40.052  0.6614E-02  0.5893E+00
     40.183  0.1530E-01  0.5913E+00
     40.315  0.2055E-01  0.5940E+00
     40.446  0.1609E-01  0.5961E+00
     40.578  0.6717E-02  0.5970E+00
     40.709  0.1140E-02  0.5971E+00
     40.840  0.2383E-04  0.5971E+00
     40.972  0.2529E-03  0.5972E+00
     41.103  0.2235E-02  0.5975E+00
     41.235  0.4123E-02  0.5980E+00
     41.366  0.2910E-02  0.5984E+00
     41.498  0.5594E-03  0.5985E+00
     41.629  0.1389E-02  0.5986E+00
     41.761  0.2927E-02  0.5990E+00
     41.892  0.2396E-02  0.5993E+00
     42.024  0.2918E-02  0.5997E+00
     42.155  0.2103E-02  0.6000E+00
     42.286  0.2230E-03  0.6000E+00
     42.418 -0.1439E-03  0.6000E+00
     42.549 -0.3054E-04  0.6000E+00
     42.681 -0.1850E-05  0.6000E+00
     42.812 -0.4133E-07  0.6000E+00
     42.944 -0.3643E-09  0.6000E+00
     43.075 -0.1301E-11  0.6000E+00
     43.207 -0.1910E-14  0.6000E+00
     43.338 -0.1320E-17  0.6000E+00
     43.469  0.0000E+00  0.6000E+00
     43.601  0.0000E+00  0.6000E+00
     43.732  0.0000E+00  0.6000E+00
     43.864  0.0000E+00  0.6000E+00
     43.995  0.0000E+00  0.6000E+00
