    1    1   30    1
  0.1072794E+02  0.2475581E-09  0.2475581E-09  0.2475581E-09  0.5000000E-15
  1.000000000000000E-004
  CAR 
 unknown system                          
     10     60      9
 
  0.6250000E-01  0.6250000E-01  0.6250000E-01  0.3906250E-02
    1        6.560685
    2       11.467309
    3       11.636302
    4       11.636302
    5       14.211719
    6       14.211719
    7       33.267141
    8       38.709967
    9       39.986471
 
  0.1875000E+00  0.6250000E-01  0.6250000E-01  0.1171875E-01
    1        7.480290
    2       11.058916
    3       11.971564
    4       12.023066
    5       13.793582
    6       14.389627
    7       34.649599
    8       36.151930
    9       40.411961
 
  0.3125000E+00  0.6250000E-01  0.6250000E-01  0.1171875E-01
    1        8.487102
    2       11.581406
    3       12.034939
    4       12.078808
    5       14.172794
    6       15.300790
    7       32.520836
    8       35.426129
    9       41.690202
 
  0.4375000E+00  0.6250000E-01  0.6250000E-01  0.1171875E-01
    1        8.207966
    2       11.485688
    3       11.681716
    4       14.147644
    5       15.528331
    6       17.024497
    7       28.628284
    8       33.428989
    9       40.165672
 
 -0.4375000E+00  0.6250000E-01  0.6250000E-01  0.1171875E-01
    1        8.048635
    2       11.297430
    3       11.580640
    4       14.928638
    5       16.311120
    6       17.958505
    7       26.782806
    8       32.770798
    9       39.910379
 
 -0.3125000E+00  0.6250000E-01  0.6250000E-01  0.1171875E-01
    1        8.320646
    2       11.567819
    3       11.871466
    4       13.181509
    5       15.770735
    6       15.875642
    7       29.928246
    8       34.083687
    9       41.244329
 
 -0.1875000E+00  0.6250000E-01  0.6250000E-01  0.1171875E-01
    1        8.317258
    2       11.097714
    3       12.067042
    4       12.180025
    5       14.066687
    6       14.715639
    7       33.764509
    8       35.628414
    9       41.995238
 
 -0.6250000E-01  0.6250000E-01  0.6250000E-01  0.1171875E-01
    1        7.047360
    2       11.156028
    3       11.880546
    4       11.891080
    5       13.855235
    6       14.366348
    7       34.038566
    8       37.506157
    9       40.186599
 
  0.1875000E+00  0.1875000E+00  0.6250000E-01  0.1171875E-01
    1        7.903579
    2       10.576848
    3       12.331158
    4       12.388753
    5       13.396792
    6       14.658997
    7       35.430359
    8       36.548332
    9       40.109227
 
  0.3125000E+00  0.1875000E+00  0.6250000E-01  0.2343750E-01
    1        9.007833
    2       10.136395
    3       11.951482
    4       12.996875
    5       14.038987
    6       15.530285
    7       34.417387
    8       36.589615
    9       39.565359
 
  0.4375000E+00  0.1875000E+00  0.6250000E-01  0.2343750E-01
    1        8.916102
    2       10.914487
    3       11.703685
    4       12.745041
    5       15.677808
    6       17.906017
    7       30.257941
    8       34.944266
    9       37.978937
 
 -0.4375000E+00  0.1875000E+00  0.6250000E-01  0.2343750E-01
    1        8.758556
    2       10.616275
    3       12.343774
    4       12.976512
    5       16.177559
    6       20.740247
    7       26.540992
    8       33.915942
    9       37.543089
 
 -0.3125000E+00  0.1875000E+00  0.6250000E-01  0.2343750E-01
    1        8.991029
    2       10.857267
    3       12.191433
    4       12.632950
    5       15.313874
    6       19.313167
    7       28.889942
    8       34.247605
    9       37.343162
 
 -0.1875000E+00  0.1875000E+00  0.6250000E-01  0.2343750E-01
    1        9.368174
    2       10.559209
    3       11.596302
    4       12.901060
    5       13.756894
    6       16.681182
    7       33.074967
    8       35.727242
    9       39.293851
 
 -0.6250000E-01  0.1875000E+00  0.6250000E-01  0.2343750E-01
    1        8.240206
    2       10.668460
    3       12.158551
    4       12.373499
    5       13.566913
    6       14.828702
    7       35.107421
    8       35.691934
    9       40.329331
 
  0.3125000E+00  0.3125000E+00  0.6250000E-01  0.1171875E-01
    1        8.879434
    2        9.218529
    3       13.139279
    4       13.971358
    5       14.924051
    6       15.514467
    7       35.211489
    8       36.875841
    9       36.888896
 
  0.4375000E+00  0.3125000E+00  0.6250000E-01  0.2343750E-01
    1        8.688772
    2        9.027974
    3       12.971790
    4       14.665934
    5       15.821699
    6       18.222133
    7       32.237897
    8       34.375213
    9       35.082833
 
 -0.4375000E+00  0.3125000E+00  0.6250000E-01  0.2343750E-01
    1        8.764151
    2        9.726534
    3       12.348789
    4       14.024091
    5       16.313249
    6       22.627813
    7       27.406273
    8       32.940596
    9       34.898565
 
 -0.3125000E+00  0.3125000E+00  0.6250000E-01  0.2343750E-01
    1        9.449496
    2       10.477939
    3       11.440669
    4       13.570847
    5       15.398829
    6       22.891829
    7       28.339573
    8       31.232727
    9       36.666822
 
 -0.1875000E+00  0.3125000E+00  0.6250000E-01  0.2343750E-01
    1        9.866151
    2       10.649661
    3       11.113084
    4       13.192369
    5       14.477375
    6       19.610023
    7       30.868645
    8       33.387526
    9       37.054645
 
 -0.6250000E-01  0.3125000E+00  0.6250000E-01  0.2343750E-01
    1        8.720237
    2       11.571970
    3       11.771315
    4       12.288479
    5       14.753882
    6       16.365130
    7       31.482071
    8       35.127438
    9       40.192807
 
  0.4375000E+00  0.4375000E+00  0.6250000E-01  0.1171875E-01
    1        7.872674
    2        8.220002
    3       15.466755
    4       15.671424
    5       16.414794
    6       18.653311
    7       31.889751
    8       32.707785
    9       32.961089
 
 -0.4375000E+00  0.4375000E+00  0.6250000E-01  0.2343750E-01
    1        7.899337
    2        8.387887
    3       14.618267
    4       15.602370
    5       16.706767
    6       21.971827
    7       29.732321
    8       31.104811
    9       31.923613
 
 -0.3125000E+00  0.4375000E+00  0.6250000E-01  0.2343750E-01
    1        8.573978
    2        9.543851
    3       12.693459
    4       14.470064
    5       16.217299
    6       24.984406
    7       26.497332
    8       30.839411
    9       34.432841
 
 -0.1875000E+00  0.4375000E+00  0.6250000E-01  0.2343750E-01
    1        9.242115
    2       10.277264
    3       12.183276
    4       12.980959
    5       15.862716
    6       22.412558
    7       26.597953
    8       33.435670
    9       36.559181
 
 -0.6250000E-01  0.4375000E+00  0.6250000E-01  0.2343750E-01
    1        8.368964
    2       11.104551
    3       11.882754
    4       13.731108
    5       16.042099
    6       18.677487
    7       27.456762
    8       33.459218
    9       38.862845
 
 -0.4375000E+00 -0.4375000E+00  0.6250000E-01  0.1171875E-01
    1        7.564706
    2        8.004716
    3       16.073674
    4       16.147113
    5       16.747760
    6       20.230472
    7       30.755762
    8       31.285673
    9       31.634110
 
 -0.3125000E+00 -0.4375000E+00  0.6250000E-01  0.2343750E-01
    1        8.201015
    2        8.596865
    3       13.920152
    4       15.370915
    5       16.348922
    6       20.280397
    7       30.711009
    8       32.760098
    9       32.950551
 
 -0.1875000E+00 -0.4375000E+00  0.6250000E-01  0.2343750E-01
    1        8.941227
    2       10.186078
    3       11.935872
    4       13.372914
    5       16.207309
    6       20.082230
    7       28.779492
    8       34.548532
    9       36.083131
 
 -0.3125000E+00 -0.3125000E+00  0.6250000E-01  0.1171875E-01
    1        8.397603
    2        8.638333
    3       14.342341
    4       14.893949
    5       15.978963
    6       16.642833
    7       33.663153
    8       34.586597
    9       35.042794
 
 -0.1875000E+00 -0.3125000E+00  0.6250000E-01  0.2343750E-01
    1        9.121636
    2        9.607540
    3       12.127784
    4       13.789708
    5       15.012586
    6       16.570487
    7       33.615296
    8       36.005067
    9       37.327449
 
 -0.1875000E+00 -0.1875000E+00  0.6250000E-01  0.1171875E-01
    1        8.747951
    2        9.889029
    3       12.530607
    4       13.100528
    5       13.727136
    6       15.057436
    7       35.928942
    8       37.118995
    9       38.998220
 
  0.1875000E+00  0.1875000E+00  0.1875000E+00  0.3906250E-02
    1        7.793658
    2       11.173270
    3       12.013039
    4       12.013039
    5       14.142476
    6       14.142476
    7       34.792372
    8       35.118863
    9       41.088685
 
  0.3125000E+00  0.1875000E+00  0.1875000E+00  0.1171875E-01
    1        8.805981
    2       10.688568
    3       12.038151
    4       12.512668
    5       13.402917
    6       15.577135
    7       33.929101
    8       35.957832
    9       40.452915
 
  0.4375000E+00  0.1875000E+00  0.1875000E+00  0.1171875E-01
    1        9.653235
    2       10.812328
    3       11.505382
    4       12.771259
    5       13.826550
    6       18.056606
    7       31.978396
    8       34.642682
    9       38.110018
 
 -0.4375000E+00  0.1875000E+00  0.1875000E+00  0.1171875E-01
    1        9.088317
    2       10.633824
    3       12.508961
    4       12.572998
    5       15.445655
    6       20.778504
    7       27.656933
    8       33.759072
    9       37.139980
 
 -0.3125000E+00  0.1875000E+00  0.1875000E+00  0.1171875E-01
    1        8.795198
    2       10.526836
    3       12.440504
    4       12.672327
    5       16.394608
    6       20.427759
    7       27.281770
    8       34.182065
    9       37.961022
 
 -0.1875000E+00  0.1875000E+00  0.1875000E+00  0.1171875E-01
    1        8.926738
    2       10.288543
    3       11.884961
    4       13.071144
    5       15.976845
    6       16.654330
    7       31.871357
    8       35.827027
    9       37.998543
 
  0.3125000E+00  0.3125000E+00  0.1875000E+00  0.1171875E-01
    1        8.806924
    2       10.840244
    3       11.787110
    4       12.530585
    5       14.944165
    6       15.372311
    7       32.931463
    8       36.009592
    9       40.330375
 
  0.4375000E+00  0.3125000E+00  0.1875000E+00  0.2343750E-01
    1        9.527739
    2       10.318379
    3       11.203740
    4       13.579993
    5       14.623332
    6       18.089954
    7       32.128712
    8       34.771370
    9       37.129721
 
 -0.4375000E+00  0.3125000E+00  0.1875000E+00  0.2343750E-01
    1        9.965745
    2       10.083347
    3       10.990083
    4       13.779544
    5       15.329272
    6       21.474736
    7       29.639289
    8       32.186873
    9       35.625949
 
 -0.3125000E+00  0.3125000E+00  0.1875000E+00  0.2343750E-01
    1        9.418300
    2        9.989893
    3       11.645078
    4       13.605257
    5       16.096623
    6       23.704077
    7       26.489785
    8       33.325027
    9       34.189768
 
 -0.1875000E+00  0.3125000E+00  0.1875000E+00  0.2343750E-01
    1        9.244335
    2        9.695371
    3       11.671344
    4       14.324421
    5       15.483705
    6       19.917355
    7       30.850689
    8       33.420285
    9       35.161894
 
  0.4375000E+00  0.4375000E+00  0.1875000E+00  0.1171875E-01
    1        8.688499
    2        9.580549
    3       12.592996
    4       13.761906
    5       16.396138
    6       18.858170
    7       30.361110
    8       34.798366
    9       35.930539
 
 -0.4375000E+00  0.4375000E+00  0.1875000E+00  0.2343750E-01
    1        8.795441
    2        9.281370
    3       12.369511
    4       14.761605
    5       16.200268
    6       22.098917
    7       29.561434
    8       32.175169
    9       32.995809
 
 -0.3125000E+00  0.4375000E+00  0.1875000E+00  0.2343750E-01
    1        9.055656
    2       10.098901
    3       11.392398
    4       14.077244
    5       16.687034
    6       26.001797
    7       27.610235
    8       30.456024
    9       31.432891
 
 -0.1875000E+00  0.4375000E+00  0.1875000E+00  0.2343750E-01
    1        9.391248
    2       10.112435
    3       11.161028
    4       14.071128
    5       16.138789
    6       23.720934
    7       28.424708
    8       31.352549
    9       33.334892
 
 -0.4375000E+00 -0.4375000E+00  0.1875000E+00  0.1171875E-01
    1        8.098357
    2        8.842796
    3       13.933033
    4       15.105087
    5       16.420975
    6       23.260048
    7       27.903745
    8       30.996274
    9       33.677945
 
 -0.3125000E+00 -0.4375000E+00  0.1875000E+00  0.2343750E-01
    1        8.488275
    2        9.108656
    3       12.922637
    4       14.787723
    5       16.691343
    6       24.042711
    7       28.734169
    8       30.783901
    9       31.717225
 
 -0.3125000E+00 -0.3125000E+00  0.1875000E+00  0.1171875E-01
    1        8.341226
    2        9.076323
    3       13.400246
    4       14.508056
    5       16.531460
    6       21.270352
    7       28.852336
    8       32.877445
    9       34.445303
 
  0.3125000E+00  0.3125000E+00  0.3125000E+00  0.3906250E-02
    1        8.294688
    2       11.845860
    3       11.845860
    4       12.840449
    5       15.019756
    6       15.019757
    7       31.128904
    8       34.648478
    9       41.093812
 
  0.4375000E+00  0.3125000E+00  0.3125000E+00  0.1171875E-01
    1        8.785299
    2       11.334426
    3       12.134044
    4       12.506756
    5       14.693952
    6       17.711304
    7       30.204536
    8       34.485227
    9       38.795853
 
 -0.4375000E+00  0.3125000E+00  0.3125000E+00  0.1171875E-01
    1        9.711147
    2       10.658959
    3       11.458714
    4       13.128297
    5       14.769199
    6       21.148085
    7       29.676791
    8       32.084691
    9       37.436247
 
 -0.3125000E+00  0.3125000E+00  0.3125000E+00  0.1171875E-01
    1        8.887148
    2       10.152552
    3       12.148376
    4       13.959648
    5       15.707345
    6       24.357611
    7       26.801265
    8       30.858985
    9       37.009216
 
  0.4375000E+00  0.4375000E+00  0.3125000E+00  0.1171875E-01
    1        8.526216
    2       11.078977
    3       12.157213
    4       12.788389
    5       16.269150
    6       17.933107
    7       28.640230
    8       34.060850
    9       39.268483
 
 -0.4375000E+00  0.4375000E+00  0.3125000E+00  0.2343750E-01
    1        9.293046
    2       10.260546
    3       11.939894
    4       13.077196
    5       15.878596
    6       21.346716
    7       27.548036
    8       34.118840
    9       35.827505
 
 -0.3125000E+00  0.4375000E+00  0.3125000E+00  0.2343750E-01
    1        9.222931
    2       10.198221
    3       11.426121
    4       13.936582
    5       16.139391
    6       25.022311
    7       27.002915
    8       30.872642
    9       33.993340
 
 -0.4375000E+00 -0.4375000E+00  0.3125000E+00  0.1171875E-01
    1        8.929600
    2       10.198718
    3       12.234770
    4       13.341164
    5       16.138290
    6       22.985044
    7       26.284815
    8       33.024531
    9       37.268986
 
  0.4375000E+00  0.4375000E+00  0.4375000E+00  0.3906250E-02
    1        7.961141
    2       11.491515
    3       11.491515
    4       15.945979
    5       16.119464
    6       16.119464
    7       27.497213
    8       32.724278
    9       40.665582
 
 -0.4375000E+00  0.4375000E+00  0.4375000E+00  0.1171875E-01
    1        8.446646
    2       10.954809
    3       11.936755
    4       13.752544
    5       16.051959
    6       19.699091
    7       26.682282
    8       33.453030
    9       38.385476
