       N       E                     dE             d eps       ncg     rms          rms(c)
DAV:   1     0.289010894132E+02    0.28901E+02   -0.43704E+03  1088   0.773E+02
DAV:   2    -0.378079818519E+01   -0.32682E+02   -0.31632E+02  1253   0.170E+02
DAV:   3    -0.398739317517E+01   -0.20659E+00   -0.20650E+00  1250   0.156E+01
DAV:   4    -0.398812935061E+01   -0.73618E-03   -0.73613E-03  1321   0.842E-01
DAV:   5    -0.398813486133E+01   -0.55107E-05   -0.55106E-05  1359   0.596E-02    0.199E+01
DAV:   6    -0.374480180909E+01    0.24333E+00   -0.45409E-01  1146   0.709E+00    0.108E+01
DAV:   7    -0.368467652018E+01    0.60125E-01   -0.81908E-02  1583   0.275E+00    0.269E+00
DAV:   8    -0.367923200600E+01    0.54445E-02   -0.50789E-03  1202   0.841E-01    0.117E-01
DAV:   9    -0.367924504973E+01   -0.13044E-04   -0.35929E-05   809   0.666E-02
   1 F= -.36792450E+01 E0= -.36784932E+01  d E =-.367925E+01
