<?xml version="1.0" encoding="ISO-8859-1"?>
<modeling>
 <generator>
  <i name="program" type="string">vasp </i>
  <i name="version" type="string">5.3.5  </i>
  <i name="subversion" type="string">31Mar14 (build Jan 09 2015 16:57:47) complex                          serial </i>
  <i name="platform" type="string">LinuxIFC </i>
  <i name="date" type="string">2015 03 24 </i>
  <i name="time" type="string">14:25:56 </i>
 </generator>
 <incar>
  <i type="string" name="PREC">normal</i>
  <i type="int" name="IBRION">     2</i>
  <i type="int" name="NSW">    30</i>
  <i type="int" name="ISIF">     2</i>
  <i name="ENCUT">    350.00000000</i>
 </incar>
 <kpoints>
  <generation param="Monkhorst-Pack">
   <v type="int" name="divisions">       8        8        8 </v>
   <v name="usershift">      0.00000000       0.00000000       0.00000000 </v>
   <v name="genvec1">      0.12500000       0.00000000       0.00000000 </v>
   <v name="genvec2">      0.00000000       0.12500000       0.00000000 </v>
   <v name="genvec3">      0.00000000       0.00000000       0.12500000 </v>
   <v name="shift">      0.50000000       0.50000000       0.50000000 </v>
  </generation>
  <varray name="kpointlist" >
   <v>       0.06250000       0.06250000       0.06250000 </v>
   <v>       0.18750000       0.06250000       0.06250000 </v>
   <v>       0.31250000       0.06250000       0.06250000 </v>
   <v>       0.43750000       0.06250000       0.06250000 </v>
   <v>      -0.43750000       0.06250000       0.06250000 </v>
   <v>      -0.31250000       0.06250000       0.06250000 </v>
   <v>      -0.18750000       0.06250000       0.06250000 </v>
   <v>      -0.06250000       0.06250000       0.06250000 </v>
   <v>       0.18750000       0.18750000       0.06250000 </v>
   <v>       0.31250000       0.18750000       0.06250000 </v>
   <v>       0.43750000       0.18750000       0.06250000 </v>
   <v>      -0.43750000       0.18750000       0.06250000 </v>
   <v>      -0.31250000       0.18750000       0.06250000 </v>
   <v>      -0.18750000       0.18750000       0.06250000 </v>
   <v>      -0.06250000       0.18750000       0.06250000 </v>
   <v>       0.31250000       0.31250000       0.06250000 </v>
   <v>       0.43750000       0.31250000       0.06250000 </v>
   <v>      -0.43750000       0.31250000       0.06250000 </v>
   <v>      -0.31250000       0.31250000       0.06250000 </v>
   <v>      -0.18750000       0.31250000       0.06250000 </v>
   <v>      -0.06250000       0.31250000       0.06250000 </v>
   <v>       0.43750000       0.43750000       0.06250000 </v>
   <v>      -0.43750000       0.43750000       0.06250000 </v>
   <v>      -0.31250000       0.43750000       0.06250000 </v>
   <v>      -0.18750000       0.43750000       0.06250000 </v>
   <v>      -0.06250000       0.43750000       0.06250000 </v>
   <v>      -0.43750000      -0.43750000       0.06250000 </v>
   <v>      -0.31250000      -0.43750000       0.06250000 </v>
   <v>      -0.18750000      -0.43750000       0.06250000 </v>
   <v>      -0.31250000      -0.31250000       0.06250000 </v>
   <v>      -0.18750000      -0.31250000       0.06250000 </v>
   <v>      -0.18750000      -0.18750000       0.06250000 </v>
   <v>       0.18750000       0.18750000       0.18750000 </v>
   <v>       0.31250000       0.18750000       0.18750000 </v>
   <v>       0.43750000       0.18750000       0.18750000 </v>
   <v>      -0.43750000       0.18750000       0.18750000 </v>
   <v>      -0.31250000       0.18750000       0.18750000 </v>
   <v>      -0.18750000       0.18750000       0.18750000 </v>
   <v>       0.31250000       0.31250000       0.18750000 </v>
   <v>       0.43750000       0.31250000       0.18750000 </v>
   <v>      -0.43750000       0.31250000       0.18750000 </v>
   <v>      -0.31250000       0.31250000       0.18750000 </v>
   <v>      -0.18750000       0.31250000       0.18750000 </v>
   <v>       0.43750000       0.43750000       0.18750000 </v>
   <v>      -0.43750000       0.43750000       0.18750000 </v>
   <v>      -0.31250000       0.43750000       0.18750000 </v>
   <v>      -0.18750000       0.43750000       0.18750000 </v>
   <v>      -0.43750000      -0.43750000       0.18750000 </v>
   <v>      -0.31250000      -0.43750000       0.18750000 </v>
   <v>      -0.31250000      -0.31250000       0.18750000 </v>
   <v>       0.31250000       0.31250000       0.31250000 </v>
   <v>       0.43750000       0.31250000       0.31250000 </v>
   <v>      -0.43750000       0.31250000       0.31250000 </v>
   <v>      -0.31250000       0.31250000       0.31250000 </v>
   <v>       0.43750000       0.43750000       0.31250000 </v>
   <v>      -0.43750000       0.43750000       0.31250000 </v>
   <v>      -0.31250000       0.43750000       0.31250000 </v>
   <v>      -0.43750000      -0.43750000       0.31250000 </v>
   <v>       0.43750000       0.43750000       0.43750000 </v>
   <v>      -0.43750000       0.43750000       0.43750000 </v>
  </varray>
  <varray name="weights" >
   <v>       0.00390625 </v>
   <v>       0.01171875 </v>
   <v>       0.01171875 </v>
   <v>       0.01171875 </v>
   <v>       0.01171875 </v>
   <v>       0.01171875 </v>
   <v>       0.01171875 </v>
   <v>       0.01171875 </v>
   <v>       0.01171875 </v>
   <v>       0.02343750 </v>
   <v>       0.02343750 </v>
   <v>       0.02343750 </v>
   <v>       0.02343750 </v>
   <v>       0.02343750 </v>
   <v>       0.02343750 </v>
   <v>       0.01171875 </v>
   <v>       0.02343750 </v>
   <v>       0.02343750 </v>
   <v>       0.02343750 </v>
   <v>       0.02343750 </v>
   <v>       0.02343750 </v>
   <v>       0.01171875 </v>
   <v>       0.02343750 </v>
   <v>       0.02343750 </v>
   <v>       0.02343750 </v>
   <v>       0.02343750 </v>
   <v>       0.01171875 </v>
   <v>       0.02343750 </v>
   <v>       0.02343750 </v>
   <v>       0.01171875 </v>
   <v>       0.02343750 </v>
   <v>       0.01171875 </v>
   <v>       0.00390625 </v>
   <v>       0.01171875 </v>
   <v>       0.01171875 </v>
   <v>       0.01171875 </v>
   <v>       0.01171875 </v>
   <v>       0.01171875 </v>
   <v>       0.01171875 </v>
   <v>       0.02343750 </v>
   <v>       0.02343750 </v>
   <v>       0.02343750 </v>
   <v>       0.02343750 </v>
   <v>       0.01171875 </v>
   <v>       0.02343750 </v>
   <v>       0.02343750 </v>
   <v>       0.02343750 </v>
   <v>       0.01171875 </v>
   <v>       0.02343750 </v>
   <v>       0.01171875 </v>
   <v>       0.00390625 </v>
   <v>       0.01171875 </v>
   <v>       0.01171875 </v>
   <v>       0.01171875 </v>
   <v>       0.01171875 </v>
   <v>       0.02343750 </v>
   <v>       0.02343750 </v>
   <v>       0.01171875 </v>
   <v>       0.00390625 </v>
   <v>       0.01171875 </v>
  </varray>
 </kpoints>
 <parameters>
  <separator name="general" >
   <i type="string" name="SYSTEM">unknown system</i>
   <i type="logical" name="LCOMPAT"> F  </i>
  </separator>
  <separator name="electronic" >
   <i type="string" name="PREC">normal</i>
   <i name="ENMAX">    350.00000000</i>
   <i name="ENAUG">    416.23000000</i>
   <i name="EDIFF">      0.00010000</i>
   <i type="int" name="IALGO">    38</i>
   <i type="int" name="IWAVPR">    11</i>
   <i type="int" name="NBANDS">     9</i>
   <i name="NELECT">     10.00000000</i>
   <i type="int" name="TURBO">     0</i>
   <i type="int" name="IRESTART">     0</i>
   <i type="int" name="NREBOOT">     0</i>
   <i type="int" name="NMIN">     0</i>
   <i name="EREF">      0.00000000</i>
   <separator name="electronic smearing" >
    <i type="int" name="ISMEAR">     1</i>
    <i name="SIGMA">      0.20000000</i>
    <i name="KSPACING">      0.50000000</i>
    <i type="logical" name="KGAMMA"> T  </i>
   </separator>
   <separator name="electronic projectors" >
    <i type="logical" name="LREAL"> F  </i>
    <v name="ROPT">      0.00000000</v>
    <i type="int" name="LMAXPAW">  -100</i>
    <i type="int" name="LMAXMIX">     2</i>
    <i type="logical" name="NLSPLINE"> F  </i>
   </separator>
   <separator name="electronic startup" >
    <i type="int" name="ISTART">     0</i>
    <i type="int" name="ICHARG">     2</i>
    <i type="int" name="INIWAV">     1</i>
   </separator>
   <separator name="electronic spin" >
    <i type="int" name="ISPIN">     1</i>
    <i type="logical" name="LNONCOLLINEAR"> F  </i>
    <v name="MAGMOM">      1.00000000</v>
    <i name="NUPDOWN">     -1.00000000</i>
    <i type="logical" name="LSORBIT"> F  </i>
    <v name="SAXIS">      0.00000000      0.00000000      1.00000000</v>
    <i type="logical" name="LSPIRAL"> F  </i>
    <v name="QSPIRAL">      0.00000000      0.00000000      0.00000000</v>
    <i type="logical" name="LZEROZ"> F  </i>
   </separator>
   <separator name="electronic exchange-correlation" >
    <i type="logical" name="LASPH"> F  </i>
    <i type="logical" name="LMETAGGA"> F  </i>
   </separator>
   <separator name="electronic convergence" >
    <i type="int" name="NELM">    60</i>
    <i type="int" name="NELMDL">    -5</i>
    <i type="int" name="NELMIN">     2</i>
    <i name="ENINI">    350.00000000</i>
    <separator name="electronic convergence detail" >
     <i type="logical" name="LDIAG"> T  </i>
     <i type="logical" name="LSUBROT"> F  </i>
     <i name="WEIMIN">      0.00100000</i>
     <i name="EBREAK">      0.00000278</i>
     <i name="DEPER">      0.30000000</i>
     <i type="int" name="NRMM">     4</i>
     <i name="TIME">      0.40000000</i>
    </separator>
   </separator>
   <separator name="electronic mixer" >
    <i name="AMIX">      0.40000000</i>
    <i name="BMIX">      1.00000000</i>
    <i name="AMIN">      0.10000000</i>
    <i name="AMIX_MAG">      1.60000000</i>
    <i name="BMIX_MAG">      1.00000000</i>
    <separator name="electronic mixer details" >
     <i type="int" name="IMIX">     4</i>
     <i type="int" name="MAXMIX">   -45</i>
     <i name="WC">    100.00000000</i>
     <i type="int" name="INIMIX">     1</i>
     <i type="int" name="MIXPRE">     1</i>
     <i type="int" name="MREMOVE">     5</i>
    </separator>
   </separator>
   <separator name="electronic dipolcorrection" >
    <i type="logical" name="LDIPOL"> F  </i>
    <i type="logical" name="LMONO"> F  </i>
    <i type="int" name="IDIPOL">     0</i>
    <i name="EPSILON">      1.00000000</i>
    <v name="DIPOL">   -100.00000000   -100.00000000   -100.00000000</v>
    <i name="EFIELD">      0.00000000</i>
   </separator>
  </separator>
  <separator name="grids" >
   <i type="int" name="NGX">    12</i>
   <i type="int" name="NGY">    12</i>
   <i type="int" name="NGZ">    12</i>
   <i type="int" name="NGXF">    24</i>
   <i type="int" name="NGYF">    24</i>
   <i type="int" name="NGZF">    24</i>
   <i type="logical" name="ADDGRID"> F  </i>
  </separator>
  <separator name="ionic" >
   <i type="int" name="NSW">    30</i>
   <i type="int" name="IBRION">     2</i>
   <i type="int" name="ISIF">     2</i>
   <i name="PSTRESS">      0.00000000</i>
   <i name="EDIFFG">      0.00100000</i>
   <i type="int" name="NFREE">     1</i>
   <i name="POTIM">      0.50000000</i>
   <i name="SMASS">     -3.00000000</i>
   <i name="SCALEE">      1.00000000</i>
  </separator>
  <separator name="ionic md" >
   <i name="TEBEG">      0.00010000</i>
   <i name="TEEND">      0.00010000</i>
   <i type="int" name="NBLOCK">     1</i>
   <i type="int" name="KBLOCK">    30</i>
   <i type="int" name="NPACO">   256</i>
   <i name="APACO">     16.00000000</i>
  </separator>
  <separator name="symmetry" >
   <i type="int" name="ISYM">     2</i>
   <i name="SYMPREC">      0.00001000</i>
  </separator>
  <separator name="dos" >
   <i type="logical" name="LORBIT"> F  </i>
   <v name="RWIGS">     -1.00000000</v>
   <i type="int" name="NEDOS">   301</i>
   <i name="EMIN">     10.00000000</i>
   <i name="EMAX">    -10.00000000</i>
   <i name="EFERMI">      0.00000000</i>
  </separator>
  <separator name="writing" >
   <i type="int" name="NWRITE">     2</i>
   <i type="logical" name="LWAVE"> T  </i>
   <i type="logical" name="LCHARG"> T  </i>
   <i type="logical" name="LPARD"> F  </i>
   <i type="logical" name="LVTOT"> F  </i>
   <i type="logical" name="LVHAR"> F  </i>
   <i type="logical" name="LELF"> F  </i>
   <i type="logical" name="LOPTICS"> F  </i>
   <v name="STM">      0.00000000      0.00000000      0.00000000      0.00000000      0.00000000      0.00000000      0.00000000</v>
  </separator>
  <separator name="performance" >
   <i type="int" name="NPAR">     1</i>
   <i type="int" name="NSIM">     4</i>
   <i type="int" name="NBLK">    -1</i>
   <i type="logical" name="LPLANE"> T  </i>
   <i type="logical" name="LSCALAPACK"> F  </i>
   <i type="logical" name="LSCAAWARE"> F  </i>
   <i type="logical" name="LSCALU"> F  </i>
   <i type="logical" name="LASYNC"> F  </i>
   <i type="logical" name="LORBITALREAL"> F  </i>
  </separator>
  <separator name="miscellaneous" >
   <i type="int" name="IDIOT">     3</i>
   <i type="logical" name="LMUSIC"> F  </i>
   <v name="POMASS">    106.42000000</v>
   <v name="DARWINR">      0.00000000</v>
   <v name="DARWINV">      1.00000000</v>
   <i type="logical" name="LCORR"> T  </i>
  </separator>
  <i type="logical" name="GGA_COMPAT"> T  </i>
  <i type="logical" name="LBERRY"> F  </i>
  <i type="int" name="ICORELEVEL">     0</i>
  <i type="logical" name="LDAU"> F  </i>
  <i type="int" name="I_CONSTRAINED_M">     0</i>
  <separator name="electronic exchange-correlation" >
   <i type="string" name="GGA">--</i>
   <i type="int" name="VOSKOWN">     0</i>
   <i type="logical" name="LHFCALC"> F  </i>
   <i type="string" name="PRECFOCK"></i>
   <i type="logical" name="LSYMGRAD"> F  </i>
   <i type="logical" name="LHFONE"> F  </i>
   <i type="logical" name="LRHFCALC"> F  </i>
   <i type="logical" name="LTHOMAS"> F  </i>
   <i type="logical" name="LMODELHF"> F  </i>
   <i name="ENCUT4O">     -1.00000000</i>
   <i type="int" name="EXXOEP">     0</i>
   <i type="int" name="FOURORBIT">     0</i>
   <i name="AEXX">      0.00000000</i>
   <i name="HFALPHA">      0.00000000</i>
   <i name="MCALPHA">      0.00000000</i>
   <i name="ALDAX">      1.00000000</i>
   <i name="AGGAX">      1.00000000</i>
   <i name="ALDAC">      1.00000000</i>
   <i name="AGGAC">      1.00000000</i>
   <i type="int" name="NKREDX">     1</i>
   <i type="int" name="NKREDY">     1</i>
   <i type="int" name="NKREDZ">     1</i>
   <i type="logical" name="SHIFTRED"> F  </i>
   <i type="logical" name="ODDONLY"> F  </i>
   <i type="logical" name="EVENONLY"> F  </i>
   <i type="int" name="LMAXFOCK">     0</i>
   <i type="int" name="NMAXFOCKAE">     0</i>
   <i type="logical" name="LFOCKAEDFT"> F  </i>
   <i name="HFSCREEN">      0.00000000</i>
   <i name="HFSCREENC">      0.00000000</i>
   <i type="int" name="NBANDSGWLOW">     0</i>
  </separator>
  <separator name="vdW DFT" >
   <i type="logical" name="LUSE_VDW"> F  </i>
   <i name="Zab_VDW">     -0.84910000</i>
   <i name="PARAM1">      0.12340000</i>
   <i name="PARAM2">      1.00000000</i>
   <i name="PARAM3">      0.00000000</i>
  </separator>
  <separator name="model GW" >
   <i type="int" name="MODEL_GW">     0</i>
   <i name="MODEL_EPS0">      6.43676408</i>
   <i name="MODEL_ALPHA">      1.00000000</i>
  </separator>
  <separator name="linear response parameters" >
   <i type="logical" name="LEPSILON"> F  </i>
   <i type="logical" name="LRPA"> F  </i>
   <i type="logical" name="LNABLA"> F  </i>
   <i type="logical" name="LVEL"> F  </i>
   <i type="int" name="KINTER">     0</i>
   <i name="CSHIFT">      0.10000000</i>
   <i name="OMEGAMAX">     -1.00000000</i>
   <i name="DEG_THRESHOLD">      0.00200000</i>
  </separator>
  <separator name="orbital magnetization" >
   <i type="logical" name="NUCIND"> F  </i>
   <v name="MAGPOS">      0.00000000      0.00000000      0.00000000</v>
   <i type="logical" name="LNICSALL"> T  </i>
   <i type="logical" name="ORBITALMAG"> F  </i>
   <i type="logical" name="LMAGBLOCH"> F  </i>
   <i type="logical" name="LCHIMAG"> F  </i>
   <i type="logical" name="LGAUGE"> T  </i>
   <i type="int" name="MAGATOM">     0</i>
   <v name="MAGDIPOL">      0.00000000      0.00000000      0.00000000</v>
   <v name="AVECCONST">      0.00000000      0.00000000      0.00000000</v>
  </separator>
  <separator name="response functions" >
   <i type="logical" name="LADDER"> F  </i>
   <i type="logical" name="LFXC"> F  </i>
   <i type="logical" name="LHARTREE"> T  </i>
   <i type="int" name="IBSE">     0</i>
   <i type="logical" name="LTCTE"> F  </i>
   <i type="logical" name="LTETE"> F  </i>
   <i type="logical" name="LTRIPLET"> F  </i>
   <i type="logical" name="LFXCEPS"> F  </i>
   <i type="logical" name="LFXHEG"> F  </i>
   <i type="logical" name="L2ORDER"> F  </i>
   <i type="logical" name="LUSEW"> F  </i>
   <i name="ENCUTGW">     -2.00000000</i>
   <i name="ENCUTGWSOFT">     -2.00000000</i>
   <i name="ENCUTLF">     -1.00000000</i>
   <i type="int" name="LMAXMP2">    -1</i>
   <i name="SCISSOR">      0.00000000</i>
   <i type="int" name="NOMEGA">     0</i>
   <i type="int" name="NOMEGAR">     0</i>
   <i type="int" name="NBANDSGW">    -1</i>
   <i type="int" name="NBANDSO">    -1</i>
   <i type="int" name="NBANDSV">    -1</i>
   <i type="int" name="NELM">     1</i>
   <i type="int" name="DIM">     3</i>
   <i type="int" name="ANTIRES">     0</i>
   <i name="OMEGAMAX">    -30.00000000</i>
   <i name="OMEGAMIN">    -30.00000000</i>
   <i name="OMEGATL">   -200.00000000</i>
   <i type="int" name="OMEGAGRID">     0</i>
   <i name="CSHIFT">     -0.10000000</i>
   <i type="logical" name="SELFENERGY"> F  </i>
   <i type="logical" name="LSPECTRAL"> F  </i>
   <i type="logical" name="ODDONLYGW"> F  </i>
   <i type="logical" name="EVENONLYGW"> F  </i>
   <i type="int" name="NKREDLFX">     1</i>
   <i type="int" name="NKREDLFY">     1</i>
   <i type="int" name="NKREDLFZ">     1</i>
   <i type="int" name="MAXMEM">  1800</i>
   <i type="int" name="TELESCOPE">     0</i>
   <i type="int" name="TAUPAR">     1</i>
  </separator>
  <separator name="External order field" >
   <i name="OFIELD_KAPPA">      0.00000000</i>
   <v name="OFIELD_K">      0.00000000      0.00000000      0.00000000</v>
   <i name="OFIELD_Q6_NEAR">      0.00000000</i>
   <i name="OFIELD_Q6_FAR">      0.00000000</i>
   <i name="OFIELD_A">      0.00000000</i>
  </separator>
 </parameters>
 <atominfo>
  <atoms>       1 </atoms>
  <types>       1 </types>
  <array name="atoms" >
   <dimension dim="1">ion</dimension>
   <field type="string">element</field>
   <field type="int">atomtype</field>
   <set>
    <rc><c>Pd</c><c>   1</c></rc>
   </set>
  </array>
  <array name="atomtypes" >
   <dimension dim="1">type</dimension>
   <field type="int">atomspertype</field>
   <field type="string">element</field>
   <field>mass</field>
   <field>valence</field>
   <field type="string">pseudopotential</field>
   <set>
    <rc><c>   1</c><c>Pd</c><c>    106.42000000</c><c>     10.00000000</c><c>  PAW_PBE Pd 04Jan2005                  </c></rc>
   </set>
  </array>
 </atominfo>
 <structure name="initialpos" >
  <crystal>
   <varray name="basis" >
    <v>       2.47558084       0.00000000       0.00000000 </v>
    <v>       1.23779042       2.14391590       0.00000000 </v>
    <v>       1.23779042       0.71463863       2.02130329 </v>
   </varray>
   <i name="volume">     10.72794013 </i>
   <varray name="rec_basis" >
    <v>       0.40394560      -0.23321810      -0.16491010 </v>
    <v>       0.00000000       0.46643621      -0.16491010 </v>
    <v>       0.00000000       0.00000000       0.49473031 </v>
   </varray>
  </crystal>
  <varray name="positions" >
   <v>       0.00000000       0.00000000       0.00000000 </v>
  </varray>
 </structure>
 <calculation>
  <scstep>
   <time name="dav">    0.32    0.32</time>
   <time name="total">    0.35    0.35</time>
   <energy>
    <i name="alphaZ">     60.75278594 </i>
    <i name="ewald">   -942.88828973 </i>
    <i name="hartreedc">    -89.87968526 </i>
    <i name="XCdc">    -27.84356774 </i>
    <i name="pawpsdc">    806.73831454 </i>
    <i name="pawaedc">   -744.51602449 </i>
    <i name="eentropy">      0.00199418 </i>
    <i name="bandstr">    156.80943348 </i>
    <i name="atom">    809.72612850 </i>
    <i name="e_fr_energy">     28.90108941 </i>
    <i name="e_wo_entrp">     28.89909523 </i>
    <i name="e_0_energy">     28.90042469 </i>
   </energy>
  </scstep>
  <scstep>
   <time name="dav">    0.37    0.37</time>
   <time name="total">    0.38    0.39</time>
   <energy>
    <i name="e_fr_energy">     -3.78079819 </i>
    <i name="e_wo_entrp">     -3.77544759 </i>
    <i name="e_0_energy">     -3.77901465 </i>
   </energy>
  </scstep>
  <scstep>
   <time name="dav">    0.36    0.36</time>
   <time name="total">    0.37    0.38</time>
   <energy>
    <i name="e_fr_energy">     -3.98739318 </i>
    <i name="e_wo_entrp">     -3.98224838 </i>
    <i name="e_0_energy">     -3.98567824 </i>
   </energy>
  </scstep>
  <scstep>
   <time name="dav">    0.37    0.38</time>
   <time name="total">    0.38    0.39</time>
   <energy>
    <i name="e_fr_energy">     -3.98812935 </i>
    <i name="e_wo_entrp">     -3.98298527 </i>
    <i name="e_0_energy">     -3.98641466 </i>
   </energy>
  </scstep>
  <scstep>
   <time name="dav">    0.42    0.42</time>
   <time name="total">    0.45    0.48</time>
   <energy>
    <i name="e_fr_energy">     -3.98813486 </i>
    <i name="e_wo_entrp">     -3.98299081 </i>
    <i name="e_0_energy">     -3.98642018 </i>
   </energy>
  </scstep>
  <scstep>
   <time name="dav">    0.38    0.39</time>
   <time name="total">    0.44    0.46</time>
   <energy>
    <i name="e_fr_energy">     -3.74480181 </i>
    <i name="e_wo_entrp">     -3.74259422 </i>
    <i name="e_0_energy">     -3.74406595 </i>
   </energy>
  </scstep>
  <scstep>
   <time name="dav">    0.54    0.54</time>
   <time name="total">    0.60    0.61</time>
   <energy>
    <i name="e_fr_energy">     -3.68467652 </i>
    <i name="e_wo_entrp">     -3.68241637 </i>
    <i name="e_0_energy">     -3.68392314 </i>
   </energy>
  </scstep>
  <scstep>
   <time name="dav">    0.41    0.41</time>
   <time name="total">    0.46    0.48</time>
   <energy>
    <i name="e_fr_energy">     -3.67923201 </i>
    <i name="e_wo_entrp">     -3.67697686 </i>
    <i name="e_0_energy">     -3.67848029 </i>
   </energy>
  </scstep>
  <scstep>
   <time name="dav">    0.29    0.29</time>
   <time name="total">    0.32    0.35</time>
   <energy>
    <i name="alphaZ">     60.75278594 </i>
    <i name="ewald">   -942.88828973 </i>
    <i name="hartreedc">    -79.58594617 </i>
    <i name="XCdc">    -28.07474569 </i>
    <i name="pawpsdc">   1278.26494588 </i>
    <i name="pawaedc">  -1221.91502014 </i>
    <i name="eentropy">     -0.00225555 </i>
    <i name="bandstr">    120.04315190 </i>
    <i name="atom">    809.72612850 </i>
    <i name="e_fr_energy">     -3.67924505 </i>
    <i name="e_wo_entrp">     -3.67698950 </i>
    <i name="e_0_energy">     -3.67849320 </i>
   </energy>
  </scstep>
  <structure>
   <crystal>
    <varray name="basis" >
     <v>       2.47558084       0.00000000       0.00000000 </v>
     <v>       1.23779042       2.14391590       0.00000000 </v>
     <v>       1.23779042       0.71463863       2.02130329 </v>
    </varray>
    <i name="volume">     10.72794013 </i>
    <varray name="rec_basis" >
     <v>       0.40394560      -0.23321810      -0.16491010 </v>
     <v>       0.00000000       0.46643621      -0.16491010 </v>
     <v>       0.00000000       0.00000000       0.49473031 </v>
    </varray>
   </crystal>
   <varray name="positions" >
    <v>       0.00000000       0.00000000       0.00000000 </v>
   </varray>
  </structure>
  <varray name="forces" >
   <v>       0.00000000       0.00000000       0.00000000 </v>
  </varray>
  <varray name="stress" >
   <v>    1535.71374812       0.00000000       0.00000000 </v>
   <v>       0.00000000    1535.71374812       0.00000000 </v>
   <v>       0.00000000       0.00000000    1535.71374812 </v>
  </varray>
  <energy>
   <i name="e_fr_energy">     -3.67924505 </i>
   <i name="e_wo_entrp">     -3.67849320 </i>
   <i name="e_0_energy">     -0.00225555 </i>
  </energy>
  <time name="totalsc">    4.17    4.55</time>
  <eigenvalues>
   <array>
    <dimension dim="1">band</dimension>
    <dimension dim="2">kpoint</dimension>
    <dimension dim="3">spin</dimension>
    <field>eigene</field>
    <field>occ</field>
    <set>
     <set comment="spin 1">
      <set comment="kpoint 1">
       <r>    6.5607    1.0000 </r>
       <r>   11.4673    1.0000 </r>
       <r>   11.6363    1.0000 </r>
       <r>   11.6363    1.0000 </r>
       <r>   14.2117    1.0000 </r>
       <r>   14.2117    1.0000 </r>
       <r>   33.2671    0.0000 </r>
       <r>   38.7100    0.0000 </r>
       <r>   39.9865    0.0000 </r>
      </set>
      <set comment="kpoint 2">
       <r>    7.4803    1.0000 </r>
       <r>   11.0589    1.0000 </r>
       <r>   11.9716    1.0000 </r>
       <r>   12.0231    1.0000 </r>
       <r>   13.7936    1.0000 </r>
       <r>   14.3896    1.0000 </r>
       <r>   34.6496    0.0000 </r>
       <r>   36.1519    0.0000 </r>
       <r>   40.4120    0.0000 </r>
      </set>
      <set comment="kpoint 3">
       <r>    8.4871    1.0000 </r>
       <r>   11.5814    1.0000 </r>
       <r>   12.0349    1.0000 </r>
       <r>   12.0788    1.0000 </r>
       <r>   14.1728    1.0000 </r>
       <r>   15.3008    1.0000 </r>
       <r>   32.5208    0.0000 </r>
       <r>   35.4261    0.0000 </r>
       <r>   41.6902    0.0000 </r>
      </set>
      <set comment="kpoint 4">
       <r>    8.2080    1.0000 </r>
       <r>   11.4857    1.0000 </r>
       <r>   11.6817    1.0000 </r>
       <r>   14.1476    1.0000 </r>
       <r>   15.5283    1.0000 </r>
       <r>   17.0245    0.0000 </r>
       <r>   28.6283    0.0000 </r>
       <r>   33.4290    0.0000 </r>
       <r>   40.1657    0.0000 </r>
      </set>
      <set comment="kpoint 5">
       <r>    8.0486    1.0000 </r>
       <r>   11.2974    1.0000 </r>
       <r>   11.5806    1.0000 </r>
       <r>   14.9286    1.0000 </r>
       <r>   16.3111    0.4669 </r>
       <r>   17.9585    0.0000 </r>
       <r>   26.7828    0.0000 </r>
       <r>   32.7708    0.0000 </r>
       <r>   39.9104    0.0000 </r>
      </set>
      <set comment="kpoint 6">
       <r>    8.3206    1.0000 </r>
       <r>   11.5678    1.0000 </r>
       <r>   11.8715    1.0000 </r>
       <r>   13.1815    1.0000 </r>
       <r>   15.7707    1.0005 </r>
       <r>   15.8756    1.0050 </r>
       <r>   29.9282    0.0000 </r>
       <r>   34.0837    0.0000 </r>
       <r>   41.2443    0.0000 </r>
      </set>
      <set comment="kpoint 7">
       <r>    8.3173    1.0000 </r>
       <r>   11.0977    1.0000 </r>
       <r>   12.0670    1.0000 </r>
       <r>   12.1800    1.0000 </r>
       <r>   14.0667    1.0000 </r>
       <r>   14.7156    1.0000 </r>
       <r>   33.7645    0.0000 </r>
       <r>   35.6284    0.0000 </r>
       <r>   41.9952    0.0000 </r>
      </set>
      <set comment="kpoint 8">
       <r>    7.0474    1.0000 </r>
       <r>   11.1560    1.0000 </r>
       <r>   11.8805    1.0000 </r>
       <r>   11.8911    1.0000 </r>
       <r>   13.8552    1.0000 </r>
       <r>   14.3663    1.0000 </r>
       <r>   34.0386    0.0000 </r>
       <r>   37.5062    0.0000 </r>
       <r>   40.1866    0.0000 </r>
      </set>
      <set comment="kpoint 9">
       <r>    7.9036    1.0000 </r>
       <r>   10.5768    1.0000 </r>
       <r>   12.3312    1.0000 </r>
       <r>   12.3888    1.0000 </r>
       <r>   13.3968    1.0000 </r>
       <r>   14.6590    1.0000 </r>
       <r>   35.4304    0.0000 </r>
       <r>   36.5483    0.0000 </r>
       <r>   40.1092    0.0000 </r>
      </set>
      <set comment="kpoint 10">
       <r>    9.0078    1.0000 </r>
       <r>   10.1364    1.0000 </r>
       <r>   11.9515    1.0000 </r>
       <r>   12.9969    1.0000 </r>
       <r>   14.0390    1.0000 </r>
       <r>   15.5303    1.0000 </r>
       <r>   34.4174    0.0000 </r>
       <r>   36.5896    0.0000 </r>
       <r>   39.5654    0.0000 </r>
      </set>
      <set comment="kpoint 11">
       <r>    8.9161    1.0000 </r>
       <r>   10.9145    1.0000 </r>
       <r>   11.7037    1.0000 </r>
       <r>   12.7450    1.0000 </r>
       <r>   15.6778    1.0000 </r>
       <r>   17.9060    0.0000 </r>
       <r>   30.2579    0.0000 </r>
       <r>   34.9443    0.0000 </r>
       <r>   37.9789    0.0000 </r>
      </set>
      <set comment="kpoint 12">
       <r>    8.7586    1.0000 </r>
       <r>   10.6163    1.0000 </r>
       <r>   12.3438    1.0000 </r>
       <r>   12.9765    1.0000 </r>
       <r>   16.1776    0.9325 </r>
       <r>   20.7402    0.0000 </r>
       <r>   26.5410    0.0000 </r>
       <r>   33.9159    0.0000 </r>
       <r>   37.5431    0.0000 </r>
      </set>
      <set comment="kpoint 13">
       <r>    8.9910    1.0000 </r>
       <r>   10.8573    1.0000 </r>
       <r>   12.1914    1.0000 </r>
       <r>   12.6329    1.0000 </r>
       <r>   15.3139    1.0000 </r>
       <r>   19.3132    0.0000 </r>
       <r>   28.8899    0.0000 </r>
       <r>   34.2476    0.0000 </r>
       <r>   37.3432    0.0000 </r>
      </set>
      <set comment="kpoint 14">
       <r>    9.3682    1.0000 </r>
       <r>   10.5592    1.0000 </r>
       <r>   11.5963    1.0000 </r>
       <r>   12.9011    1.0000 </r>
       <r>   13.7569    1.0000 </r>
       <r>   16.6812   -0.0112 </r>
       <r>   33.0750    0.0000 </r>
       <r>   35.7272    0.0000 </r>
       <r>   39.2939    0.0000 </r>
      </set>
      <set comment="kpoint 15">
       <r>    8.2402    1.0000 </r>
       <r>   10.6685    1.0000 </r>
       <r>   12.1586    1.0000 </r>
       <r>   12.3735    1.0000 </r>
       <r>   13.5669    1.0000 </r>
       <r>   14.8287    1.0000 </r>
       <r>   35.1074    0.0000 </r>
       <r>   35.6919    0.0000 </r>
       <r>   40.3293    0.0000 </r>
      </set>
      <set comment="kpoint 16">
       <r>    8.8794    1.0000 </r>
       <r>    9.2185    1.0000 </r>
       <r>   13.1393    1.0000 </r>
       <r>   13.9714    1.0000 </r>
       <r>   14.9241    1.0000 </r>
       <r>   15.5145    1.0000 </r>
       <r>   35.2115    0.0000 </r>
       <r>   36.8758    0.0000 </r>
       <r>   36.8889    0.0000 </r>
      </set>
      <set comment="kpoint 17">
       <r>    8.6888    1.0000 </r>
       <r>    9.0280    1.0000 </r>
       <r>   12.9718    1.0000 </r>
       <r>   14.6659    1.0000 </r>
       <r>   15.8217    1.0017 </r>
       <r>   18.2221    0.0000 </r>
       <r>   32.2379    0.0000 </r>
       <r>   34.3752    0.0000 </r>
       <r>   35.0828    0.0000 </r>
      </set>
      <set comment="kpoint 18">
       <r>    8.7642    1.0000 </r>
       <r>    9.7265    1.0000 </r>
       <r>   12.3488    1.0000 </r>
       <r>   14.0241    1.0000 </r>
       <r>   16.3132    0.4579 </r>
       <r>   22.6278    0.0000 </r>
       <r>   27.4063    0.0000 </r>
       <r>   32.9406    0.0000 </r>
       <r>   34.8986    0.0000 </r>
      </set>
      <set comment="kpoint 19">
       <r>    9.4495    1.0000 </r>
       <r>   10.4779    1.0000 </r>
       <r>   11.4407    1.0000 </r>
       <r>   13.5708    1.0000 </r>
       <r>   15.3988    1.0000 </r>
       <r>   22.8918    0.0000 </r>
       <r>   28.3396    0.0000 </r>
       <r>   31.2327    0.0000 </r>
       <r>   36.6668    0.0000 </r>
      </set>
      <set comment="kpoint 20">
       <r>    9.8662    1.0000 </r>
       <r>   10.6497    1.0000 </r>
       <r>   11.1131    1.0000 </r>
       <r>   13.1924    1.0000 </r>
       <r>   14.4774    1.0000 </r>
       <r>   19.6100    0.0000 </r>
       <r>   30.8686    0.0000 </r>
       <r>   33.3875    0.0000 </r>
       <r>   37.0546    0.0000 </r>
      </set>
      <set comment="kpoint 21">
       <r>    8.7202    1.0000 </r>
       <r>   11.5720    1.0000 </r>
       <r>   11.7713    1.0000 </r>
       <r>   12.2885    1.0000 </r>
       <r>   14.7539    1.0000 </r>
       <r>   16.3651    0.2517 </r>
       <r>   31.4821    0.0000 </r>
       <r>   35.1274    0.0000 </r>
       <r>   40.1928    0.0000 </r>
      </set>
      <set comment="kpoint 22">
       <r>    7.8727    1.0000 </r>
       <r>    8.2200    1.0000 </r>
       <r>   15.4668    1.0000 </r>
       <r>   15.6714    1.0000 </r>
       <r>   16.4148    0.1000 </r>
       <r>   18.6533    0.0000 </r>
       <r>   31.8898    0.0000 </r>
       <r>   32.7078    0.0000 </r>
       <r>   32.9611    0.0000 </r>
      </set>
      <set comment="kpoint 23">
       <r>    7.8993    1.0000 </r>
       <r>    8.3879    1.0000 </r>
       <r>   14.6183    1.0000 </r>
       <r>   15.6024    1.0000 </r>
       <r>   16.7068   -0.0076 </r>
       <r>   21.9718    0.0000 </r>
       <r>   29.7323    0.0000 </r>
       <r>   31.1048    0.0000 </r>
       <r>   31.9236    0.0000 </r>
      </set>
      <set comment="kpoint 24">
       <r>    8.5740    1.0000 </r>
       <r>    9.5439    1.0000 </r>
       <r>   12.6935    1.0000 </r>
       <r>   14.4701    1.0000 </r>
       <r>   16.2173    0.8293 </r>
       <r>   24.9844    0.0000 </r>
       <r>   26.4973    0.0000 </r>
       <r>   30.8394    0.0000 </r>
       <r>   34.4328    0.0000 </r>
      </set>
      <set comment="kpoint 25">
       <r>    9.2421    1.0000 </r>
       <r>   10.2773    1.0000 </r>
       <r>   12.1833    1.0000 </r>
       <r>   12.9810    1.0000 </r>
       <r>   15.8627    1.0039 </r>
       <r>   22.4126    0.0000 </r>
       <r>   26.5980    0.0000 </r>
       <r>   33.4357    0.0000 </r>
       <r>   36.5592    0.0000 </r>
      </set>
      <set comment="kpoint 26">
       <r>    8.3690    1.0000 </r>
       <r>   11.1046    1.0000 </r>
       <r>   11.8828    1.0000 </r>
       <r>   13.7311    1.0000 </r>
       <r>   16.0421    1.0345 </r>
       <r>   18.6775    0.0000 </r>
       <r>   27.4568    0.0000 </r>
       <r>   33.4592    0.0000 </r>
       <r>   38.8628    0.0000 </r>
      </set>
      <set comment="kpoint 27">
       <r>    7.5647    1.0000 </r>
       <r>    8.0047    1.0000 </r>
       <r>   16.0737    1.0345 </r>
       <r>   16.1471    0.9850 </r>
       <r>   16.7478   -0.0037 </r>
       <r>   20.2305    0.0000 </r>
       <r>   30.7558    0.0000 </r>
       <r>   31.2857    0.0000 </r>
       <r>   31.6341    0.0000 </r>
      </set>
      <set comment="kpoint 28">
       <r>    8.2010    1.0000 </r>
       <r>    8.5969    1.0000 </r>
       <r>   13.9202    1.0000 </r>
       <r>   15.3709    1.0000 </r>
       <r>   16.3489    0.3124 </r>
       <r>   20.2804    0.0000 </r>
       <r>   30.7110    0.0000 </r>
       <r>   32.7601    0.0000 </r>
       <r>   32.9506    0.0000 </r>
      </set>
      <set comment="kpoint 29">
       <r>    8.9412    1.0000 </r>
       <r>   10.1861    1.0000 </r>
       <r>   11.9359    1.0000 </r>
       <r>   13.3729    1.0000 </r>
       <r>   16.2073    0.8589 </r>
       <r>   20.0822    0.0000 </r>
       <r>   28.7795    0.0000 </r>
       <r>   34.5485    0.0000 </r>
       <r>   36.0831    0.0000 </r>
      </set>
      <set comment="kpoint 30">
       <r>    8.3976    1.0000 </r>
       <r>    8.6383    1.0000 </r>
       <r>   14.3423    1.0000 </r>
       <r>   14.8939    1.0000 </r>
       <r>   15.9790    1.0221 </r>
       <r>   16.6428   -0.0186 </r>
       <r>   33.6632    0.0000 </r>
       <r>   34.5866    0.0000 </r>
       <r>   35.0428    0.0000 </r>
      </set>
      <set comment="kpoint 31">
       <r>    9.1216    1.0000 </r>
       <r>    9.6075    1.0000 </r>
       <r>   12.1278    1.0000 </r>
       <r>   13.7897    1.0000 </r>
       <r>   15.0126    1.0000 </r>
       <r>   16.5705   -0.0338 </r>
       <r>   33.6153    0.0000 </r>
       <r>   36.0051    0.0000 </r>
       <r>   37.3274    0.0000 </r>
      </set>
      <set comment="kpoint 32">
       <r>    8.7480    1.0000 </r>
       <r>    9.8890    1.0000 </r>
       <r>   12.5306    1.0000 </r>
       <r>   13.1005    1.0000 </r>
       <r>   13.7271    1.0000 </r>
       <r>   15.0574    1.0000 </r>
       <r>   35.9289    0.0000 </r>
       <r>   37.1190    0.0000 </r>
       <r>   38.9982    0.0000 </r>
      </set>
      <set comment="kpoint 33">
       <r>    7.7937    1.0000 </r>
       <r>   11.1733    1.0000 </r>
       <r>   12.0130    1.0000 </r>
       <r>   12.0130    1.0000 </r>
       <r>   14.1425    1.0000 </r>
       <r>   14.1425    1.0000 </r>
       <r>   34.7924    0.0000 </r>
       <r>   35.1189    0.0000 </r>
       <r>   41.0887    0.0000 </r>
      </set>
      <set comment="kpoint 34">
       <r>    8.8060    1.0000 </r>
       <r>   10.6886    1.0000 </r>
       <r>   12.0382    1.0000 </r>
       <r>   12.5127    1.0000 </r>
       <r>   13.4029    1.0000 </r>
       <r>   15.5771    1.0000 </r>
       <r>   33.9291    0.0000 </r>
       <r>   35.9578    0.0000 </r>
       <r>   40.4529    0.0000 </r>
      </set>
      <set comment="kpoint 35">
       <r>    9.6532    1.0000 </r>
       <r>   10.8123    1.0000 </r>
       <r>   11.5054    1.0000 </r>
       <r>   12.7713    1.0000 </r>
       <r>   13.8266    1.0000 </r>
       <r>   18.0566    0.0000 </r>
       <r>   31.9784    0.0000 </r>
       <r>   34.6427    0.0000 </r>
       <r>   38.1100    0.0000 </r>
      </set>
      <set comment="kpoint 36">
       <r>    9.0883    1.0000 </r>
       <r>   10.6338    1.0000 </r>
       <r>   12.5090    1.0000 </r>
       <r>   12.5730    1.0000 </r>
       <r>   15.4457    1.0000 </r>
       <r>   20.7785    0.0000 </r>
       <r>   27.6569    0.0000 </r>
       <r>   33.7591    0.0000 </r>
       <r>   37.1400    0.0000 </r>
      </set>
      <set comment="kpoint 37">
       <r>    8.7952    1.0000 </r>
       <r>   10.5268    1.0000 </r>
       <r>   12.4405    1.0000 </r>
       <r>   12.6723    1.0000 </r>
       <r>   16.3946    0.1547 </r>
       <r>   20.4278    0.0000 </r>
       <r>   27.2818    0.0000 </r>
       <r>   34.1821    0.0000 </r>
       <r>   37.9610    0.0000 </r>
      </set>
      <set comment="kpoint 38">
       <r>    8.9267    1.0000 </r>
       <r>   10.2885    1.0000 </r>
       <r>   11.8850    1.0000 </r>
       <r>   13.0711    1.0000 </r>
       <r>   15.9768    1.0216 </r>
       <r>   16.6543   -0.0162 </r>
       <r>   31.8714    0.0000 </r>
       <r>   35.8270    0.0000 </r>
       <r>   37.9985    0.0000 </r>
      </set>
      <set comment="kpoint 39">
       <r>    8.8069    1.0000 </r>
       <r>   10.8402    1.0000 </r>
       <r>   11.7871    1.0000 </r>
       <r>   12.5306    1.0000 </r>
       <r>   14.9442    1.0000 </r>
       <r>   15.3723    1.0000 </r>
       <r>   32.9315    0.0000 </r>
       <r>   36.0096    0.0000 </r>
       <r>   40.3304    0.0000 </r>
      </set>
      <set comment="kpoint 40">
       <r>    9.5277    1.0000 </r>
       <r>   10.3184    1.0000 </r>
       <r>   11.2037    1.0000 </r>
       <r>   13.5800    1.0000 </r>
       <r>   14.6233    1.0000 </r>
       <r>   18.0900    0.0000 </r>
       <r>   32.1287    0.0000 </r>
       <r>   34.7714    0.0000 </r>
       <r>   37.1297    0.0000 </r>
      </set>
      <set comment="kpoint 41">
       <r>    9.9657    1.0000 </r>
       <r>   10.0833    1.0000 </r>
       <r>   10.9901    1.0000 </r>
       <r>   13.7795    1.0000 </r>
       <r>   15.3293    1.0000 </r>
       <r>   21.4747    0.0000 </r>
       <r>   29.6393    0.0000 </r>
       <r>   32.1869    0.0000 </r>
       <r>   35.6259    0.0000 </r>
      </set>
      <set comment="kpoint 42">
       <r>    9.4183    1.0000 </r>
       <r>    9.9899    1.0000 </r>
       <r>   11.6451    1.0000 </r>
       <r>   13.6053    1.0000 </r>
       <r>   16.0966    1.0283 </r>
       <r>   23.7041    0.0000 </r>
       <r>   26.4898    0.0000 </r>
       <r>   33.3250    0.0000 </r>
       <r>   34.1898    0.0000 </r>
      </set>
      <set comment="kpoint 43">
       <r>    9.2443    1.0000 </r>
       <r>    9.6954    1.0000 </r>
       <r>   11.6713    1.0000 </r>
       <r>   14.3244    1.0000 </r>
       <r>   15.4837    1.0000 </r>
       <r>   19.9174    0.0000 </r>
       <r>   30.8507    0.0000 </r>
       <r>   33.4203    0.0000 </r>
       <r>   35.1619    0.0000 </r>
      </set>
      <set comment="kpoint 44">
       <r>    8.6885    1.0000 </r>
       <r>    9.5805    1.0000 </r>
       <r>   12.5930    1.0000 </r>
       <r>   13.7619    1.0000 </r>
       <r>   16.3961    0.1502 </r>
       <r>   18.8582    0.0000 </r>
       <r>   30.3611    0.0000 </r>
       <r>   34.7984    0.0000 </r>
       <r>   35.9305    0.0000 </r>
      </set>
      <set comment="kpoint 45">
       <r>    8.7954    1.0000 </r>
       <r>    9.2814    1.0000 </r>
       <r>   12.3695    1.0000 </r>
       <r>   14.7616    1.0000 </r>
       <r>   16.2003    0.8783 </r>
       <r>   22.0989    0.0000 </r>
       <r>   29.5614    0.0000 </r>
       <r>   32.1752    0.0000 </r>
       <r>   32.9958    0.0000 </r>
      </set>
      <set comment="kpoint 46">
       <r>    9.0557    1.0000 </r>
       <r>   10.0989    1.0000 </r>
       <r>   11.3924    1.0000 </r>
       <r>   14.0772    1.0000 </r>
       <r>   16.6870   -0.0103 </r>
       <r>   26.0018    0.0000 </r>
       <r>   27.6102    0.0000 </r>
       <r>   30.4560    0.0000 </r>
       <r>   31.4329    0.0000 </r>
      </set>
      <set comment="kpoint 47">
       <r>    9.3912    1.0000 </r>
       <r>   10.1124    1.0000 </r>
       <r>   11.1610    1.0000 </r>
       <r>   14.0711    1.0000 </r>
       <r>   16.1388    0.9956 </r>
       <r>   23.7209    0.0000 </r>
       <r>   28.4247    0.0000 </r>
       <r>   31.3525    0.0000 </r>
       <r>   33.3349    0.0000 </r>
      </set>
      <set comment="kpoint 48">
       <r>    8.0984    1.0000 </r>
       <r>    8.8428    1.0000 </r>
       <r>   13.9330    1.0000 </r>
       <r>   15.1051    1.0000 </r>
       <r>   16.4210    0.0853 </r>
       <r>   23.2600    0.0000 </r>
       <r>   27.9037    0.0000 </r>
       <r>   30.9963    0.0000 </r>
       <r>   33.6779    0.0000 </r>
      </set>
      <set comment="kpoint 49">
       <r>    8.4883    1.0000 </r>
       <r>    9.1087    1.0000 </r>
       <r>   12.9226    1.0000 </r>
       <r>   14.7877    1.0000 </r>
       <r>   16.6913   -0.0097 </r>
       <r>   24.0427    0.0000 </r>
       <r>   28.7342    0.0000 </r>
       <r>   30.7839    0.0000 </r>
       <r>   31.7172    0.0000 </r>
      </set>
      <set comment="kpoint 50">
       <r>    8.3412    1.0000 </r>
       <r>    9.0763    1.0000 </r>
       <r>   13.4002    1.0000 </r>
       <r>   14.5081    1.0000 </r>
       <r>   16.5315   -0.0342 </r>
       <r>   21.2704    0.0000 </r>
       <r>   28.8523    0.0000 </r>
       <r>   32.8774    0.0000 </r>
       <r>   34.4453    0.0000 </r>
      </set>
      <set comment="kpoint 51">
       <r>    8.2947    1.0000 </r>
       <r>   11.8459    1.0000 </r>
       <r>   11.8459    1.0000 </r>
       <r>   12.8404    1.0000 </r>
       <r>   15.0198    1.0000 </r>
       <r>   15.0198    1.0000 </r>
       <r>   31.1289    0.0000 </r>
       <r>   34.6485    0.0000 </r>
       <r>   41.0938    0.0000 </r>
      </set>
      <set comment="kpoint 52">
       <r>    8.7853    1.0000 </r>
       <r>   11.3344    1.0000 </r>
       <r>   12.1340    1.0000 </r>
       <r>   12.5068    1.0000 </r>
       <r>   14.6940    1.0000 </r>
       <r>   17.7113    0.0000 </r>
       <r>   30.2045    0.0000 </r>
       <r>   34.4852    0.0000 </r>
       <r>   38.7959    0.0000 </r>
      </set>
      <set comment="kpoint 53">
       <r>    9.7111    1.0000 </r>
       <r>   10.6590    1.0000 </r>
       <r>   11.4587    1.0000 </r>
       <r>   13.1283    1.0000 </r>
       <r>   14.7692    1.0000 </r>
       <r>   21.1481    0.0000 </r>
       <r>   29.6768    0.0000 </r>
       <r>   32.0847    0.0000 </r>
       <r>   37.4362    0.0000 </r>
      </set>
      <set comment="kpoint 54">
       <r>    8.8871    1.0000 </r>
       <r>   10.1526    1.0000 </r>
       <r>   12.1484    1.0000 </r>
       <r>   13.9596    1.0000 </r>
       <r>   15.7073    1.0001 </r>
       <r>   24.3576    0.0000 </r>
       <r>   26.8013    0.0000 </r>
       <r>   30.8590    0.0000 </r>
       <r>   37.0092    0.0000 </r>
      </set>
      <set comment="kpoint 55">
       <r>    8.5262    1.0000 </r>
       <r>   11.0790    1.0000 </r>
       <r>   12.1572    1.0000 </r>
       <r>   12.7884    1.0000 </r>
       <r>   16.2692    0.6422 </r>
       <r>   17.9331    0.0000 </r>
       <r>   28.6402    0.0000 </r>
       <r>   34.0609    0.0000 </r>
       <r>   39.2685    0.0000 </r>
      </set>
      <set comment="kpoint 56">
       <r>    9.2930    1.0000 </r>
       <r>   10.2605    1.0000 </r>
       <r>   11.9399    1.0000 </r>
       <r>   13.0772    1.0000 </r>
       <r>   15.8786    1.0053 </r>
       <r>   21.3467    0.0000 </r>
       <r>   27.5480    0.0000 </r>
       <r>   34.1188    0.0000 </r>
       <r>   35.8275    0.0000 </r>
      </set>
      <set comment="kpoint 57">
       <r>    9.2229    1.0000 </r>
       <r>   10.1982    1.0000 </r>
       <r>   11.4261    1.0000 </r>
       <r>   13.9366    1.0000 </r>
       <r>   16.1394    0.9949 </r>
       <r>   25.0223    0.0000 </r>
       <r>   27.0029    0.0000 </r>
       <r>   30.8726    0.0000 </r>
       <r>   33.9933    0.0000 </r>
      </set>
      <set comment="kpoint 58">
       <r>    8.9296    1.0000 </r>
       <r>   10.1987    1.0000 </r>
       <r>   12.2348    1.0000 </r>
       <r>   13.3412    1.0000 </r>
       <r>   16.1383    0.9962 </r>
       <r>   22.9850    0.0000 </r>
       <r>   26.2848    0.0000 </r>
       <r>   33.0245    0.0000 </r>
       <r>   37.2690    0.0000 </r>
      </set>
      <set comment="kpoint 59">
       <r>    7.9611    1.0000 </r>
       <r>   11.4915    1.0000 </r>
       <r>   11.4915    1.0000 </r>
       <r>   15.9460    1.0150 </r>
       <r>   16.1195    1.0146 </r>
       <r>   16.1195    1.0146 </r>
       <r>   27.4972    0.0000 </r>
       <r>   32.7243    0.0000 </r>
       <r>   40.6656    0.0000 </r>
      </set>
      <set comment="kpoint 60">
       <r>    8.4466    1.0000 </r>
       <r>   10.9548    1.0000 </r>
       <r>   11.9368    1.0000 </r>
       <r>   13.7525    1.0000 </r>
       <r>   16.0520    1.0353 </r>
       <r>   19.6991    0.0000 </r>
       <r>   26.6823    0.0000 </r>
       <r>   33.4530    0.0000 </r>
       <r>   38.3855    0.0000 </r>
      </set>
     </set>
    </set>
   </array>
  </eigenvalues>
  <separator name="orbital magnetization" >
   <v name="MAGDIPOLOUT">      0.00000000      0.00000000      0.00000000</v>
  </separator>
  <dos>
   <i name="efermi">     16.30329642 </i>
   <total>
    <array>
     <dimension dim="1">gridpoints</dimension>
     <dimension dim="2">spin</dimension>
     <field>energy</field>
     <field>total</field>
     <field>integrated</field>
     <set>
      <set comment="spin 1">
       <r>     4.5607     0.0000     0.0000 </r>
       <r>     4.6921     0.0000     0.0000 </r>
       <r>     4.8236     0.0000     0.0000 </r>
       <r>     4.9550     0.0000     0.0000 </r>
       <r>     5.0865     0.0000     0.0000 </r>
       <r>     5.2179     0.0000     0.0000 </r>
       <r>     5.3494     0.0000     0.0000 </r>
       <r>     5.4808     0.0000     0.0000 </r>
       <r>     5.6123     0.0000     0.0000 </r>
       <r>     5.7437     0.0000     0.0000 </r>
       <r>     5.8752     0.0000     0.0000 </r>
       <r>     6.0066     0.0000     0.0000 </r>
       <r>     6.1381    -0.0003     0.0000 </r>
       <r>     6.2695    -0.0014    -0.0002 </r>
       <r>     6.4010     0.0024     0.0001 </r>
       <r>     6.5324     0.0219     0.0030 </r>
       <r>     6.6639     0.0278     0.0066 </r>
       <r>     6.7953     0.0048     0.0073 </r>
       <r>     6.9268     0.0190     0.0098 </r>
       <r>     7.0582     0.0815     0.0205 </r>
       <r>     7.1897     0.0682     0.0294 </r>
       <r>     7.3211     0.0151     0.0314 </r>
       <r>     7.4526     0.0820     0.0422 </r>
       <r>     7.5840     0.1553     0.0626 </r>
       <r>     7.7154     0.1118     0.0773 </r>
       <r>     7.8469     0.2589     0.1113 </r>
       <r>     7.9783     0.4987     0.1769 </r>
       <r>     8.1098     0.5505     0.2492 </r>
       <r>     8.2412     0.8185     0.3568 </r>
       <r>     8.3727     1.1623     0.5096 </r>
       <r>     8.5041     1.1655     0.6628 </r>
       <r>     8.6356     1.1999     0.8205 </r>
       <r>     8.7670     1.6547     1.0380 </r>
       <r>     8.8985     1.9223     1.2907 </r>
       <r>     9.0299     1.8038     1.5278 </r>
       <r>     9.1614     1.6124     1.7398 </r>
       <r>     9.2928     1.4966     1.9365 </r>
       <r>     9.4243     1.3602     2.1153 </r>
       <r>     9.5557     1.1679     2.2688 </r>
       <r>     9.6872     1.0107     2.4017 </r>
       <r>     9.8186     0.7362     2.4984 </r>
       <r>     9.9501     0.6663     2.5860 </r>
       <r>    10.0815     1.1279     2.7343 </r>
       <r>    10.2130     1.5883     2.9431 </r>
       <r>    10.3444     1.2254     3.1041 </r>
       <r>    10.4759     0.7077     3.1972 </r>
       <r>    10.6073     0.9896     3.3272 </r>
       <r>    10.7388     1.1143     3.4737 </r>
       <r>    10.8702     0.8151     3.5809 </r>
       <r>    11.0017     0.9018     3.6994 </r>
       <r>    11.1331     1.1811     3.8547 </r>
       <r>    11.2646     1.0304     3.9901 </r>
       <r>    11.3960     0.9114     4.1099 </r>
       <r>    11.5275     1.3459     4.2868 </r>
       <r>    11.6589     1.5729     4.4936 </r>
       <r>    11.7904     1.4050     4.6783 </r>
       <r>    11.9218     1.5572     4.8830 </r>
       <r>    12.0532     1.7918     5.1185 </r>
       <r>    12.1847     1.7772     5.3521 </r>
       <r>    12.3161     1.6781     5.5727 </r>
       <r>    12.4476     1.4533     5.7637 </r>
       <r>    12.5790     1.1684     5.9173 </r>
       <r>    12.7105     0.9875     6.0471 </r>
       <r>    12.8419     0.9342     6.1699 </r>
       <r>    12.9734     1.2547     6.3348 </r>
       <r>    13.1048     1.3884     6.5174 </r>
       <r>    13.2363     0.9172     6.6379 </r>
       <r>    13.3677     0.6083     6.7179 </r>
       <r>    13.4992     0.7126     6.8115 </r>
       <r>    13.6306     1.0100     6.9443 </r>
       <r>    13.7621     1.4086     7.1295 </r>
       <r>    13.8935     1.5818     7.3374 </r>
       <r>    14.0250     1.5313     7.5387 </r>
       <r>    14.1564     1.2245     7.6996 </r>
       <r>    14.2879     0.7160     7.7938 </r>
       <r>    14.4193     0.6724     7.8821 </r>
       <r>    14.5508     0.8812     7.9980 </r>
       <r>    14.6822     1.2327     8.1600 </r>
       <r>    14.8137     1.4380     8.3490 </r>
       <r>    14.9451     1.1128     8.4953 </r>
       <r>    15.0766     0.6574     8.5817 </r>
       <r>    15.2080     0.3883     8.6328 </r>
       <r>    15.3395     0.7841     8.7358 </r>
       <r>    15.4709     1.3380     8.9117 </r>
       <r>    15.6024     1.2698     9.0786 </r>
       <r>    15.7338     0.9488     9.2033 </r>
       <r>    15.8653     0.8717     9.3179 </r>
       <r>    15.9967     1.0491     9.4558 </r>
       <r>    16.1282     1.6115     9.6676 </r>
       <r>    16.2596     1.9532     9.9244 </r>
       <r>    16.3911     1.5055    10.1223 </r>
       <r>    16.5225     0.9447    10.2465 </r>
       <r>    16.6539     1.0111    10.3794 </r>
       <r>    16.7854     1.0088    10.5120 </r>
       <r>    16.9168     0.3533    10.5584 </r>
       <r>    17.0483     0.0492    10.5649 </r>
       <r>    17.1797     0.0414    10.5703 </r>
       <r>    17.3112     0.0039    10.5709 </r>
       <r>    17.4426    -0.0103    10.5695 </r>
       <r>    17.5741     0.0021    10.5698 </r>
       <r>    17.7055     0.0607    10.5777 </r>
       <r>    17.8370     0.2072    10.6050 </r>
       <r>    17.9684     0.4444    10.6634 </r>
       <r>    18.0999     0.5266    10.7326 </r>
       <r>    18.2313     0.3881    10.7836 </r>
       <r>    18.3628     0.1518    10.8036 </r>
       <r>    18.4942     0.0183    10.8060 </r>
       <r>    18.6257     0.1583    10.8268 </r>
       <r>    18.7571     0.3001    10.8662 </r>
       <r>    18.8886     0.1935    10.8917 </r>
       <r>    19.0200     0.0484    10.8980 </r>
       <r>    19.1515     0.0109    10.8995 </r>
       <r>    19.2829     0.1176    10.9149 </r>
       <r>    19.4144     0.1720    10.9375 </r>
       <r>    19.5458     0.1571    10.9582 </r>
       <r>    19.6773     0.2380    10.9895 </r>
       <r>    19.8087     0.2141    11.0176 </r>
       <r>    19.9402     0.2118    11.0455 </r>
       <r>    20.0716     0.2776    11.0820 </r>
       <r>    20.2031     0.3251    11.1247 </r>
       <r>    20.3345     0.3353    11.1688 </r>
       <r>    20.4660     0.2001    11.1951 </r>
       <r>    20.5974     0.0829    11.2060 </r>
       <r>    20.7289     0.1976    11.2319 </r>
       <r>    20.8603     0.2481    11.2646 </r>
       <r>    20.9917     0.0765    11.2746 </r>
       <r>    21.1232     0.0558    11.2819 </r>
       <r>    21.2546     0.2142    11.3101 </r>
       <r>    21.3861     0.3624    11.3577 </r>
       <r>    21.5175     0.3215    11.4000 </r>
       <r>    21.6490     0.1118    11.4147 </r>
       <r>    21.7804    -0.0092    11.4135 </r>
       <r>    21.9119     0.0917    11.4255 </r>
       <r>    22.0433     0.2850    11.4630 </r>
       <r>    22.1748     0.2642    11.4977 </r>
       <r>    22.3062     0.1260    11.5143 </r>
       <r>    22.4377     0.1661    11.5361 </r>
       <r>    22.5691     0.2216    11.5653 </r>
       <r>    22.7006     0.1982    11.5913 </r>
       <r>    22.8320     0.1847    11.6156 </r>
       <r>    22.9635     0.2474    11.6481 </r>
       <r>    23.0949     0.1732    11.6709 </r>
       <r>    23.2264     0.0840    11.6819 </r>
       <r>    23.3578     0.0696    11.6911 </r>
       <r>    23.4893     0.0151    11.6930 </r>
       <r>    23.6207     0.1278    11.7098 </r>
       <r>    23.7522     0.3525    11.7562 </r>
       <r>    23.8836     0.2554    11.7897 </r>
       <r>    24.0151     0.1479    11.8092 </r>
       <r>    24.1465     0.1587    11.8300 </r>
       <r>    24.2780     0.0915    11.8421 </r>
       <r>    24.4094     0.0847    11.8532 </r>
       <r>    24.5409     0.0479    11.8595 </r>
       <r>    24.6723    -0.0114    11.8580 </r>
       <r>    24.8038    -0.0048    11.8574 </r>
       <r>    24.9352     0.1813    11.8812 </r>
       <r>    25.0667     0.3688    11.9297 </r>
       <r>    25.1981     0.1920    11.9549 </r>
       <r>    25.3295     0.0018    11.9552 </r>
       <r>    25.4610    -0.0135    11.9534 </r>
       <r>    25.5924    -0.0043    11.9528 </r>
       <r>    25.7239    -0.0092    11.9516 </r>
       <r>    25.8553     0.0211    11.9544 </r>
       <r>    25.9868     0.1403    11.9728 </r>
       <r>    26.1182     0.1647    11.9945 </r>
       <r>    26.2497     0.0750    12.0043 </r>
       <r>    26.3811     0.1790    12.0279 </r>
       <r>    26.5126     0.5718    12.1030 </r>
       <r>    26.6440     0.7183    12.1975 </r>
       <r>    26.7755     0.4338    12.2545 </r>
       <r>    26.9069     0.2427    12.2864 </r>
       <r>    27.0384     0.1956    12.3121 </r>
       <r>    27.1698     0.1131    12.3270 </r>
       <r>    27.3013     0.1444    12.3459 </r>
       <r>    27.4327     0.4378    12.4035 </r>
       <r>    27.5642     0.6625    12.4906 </r>
       <r>    27.6956     0.4954    12.5557 </r>
       <r>    27.8271     0.1775    12.5790 </r>
       <r>    27.9585     0.0718    12.5885 </r>
       <r>    28.0900     0.0250    12.5917 </r>
       <r>    28.2214     0.0373    12.5966 </r>
       <r>    28.3529     0.2369    12.6278 </r>
       <r>    28.4843     0.3311    12.6713 </r>
       <r>    28.6158     0.3061    12.7116 </r>
       <r>    28.7472     0.5112    12.7787 </r>
       <r>    28.8787     0.6009    12.8577 </r>
       <r>    29.0101     0.3070    12.8981 </r>
       <r>    29.1416     0.0259    12.9015 </r>
       <r>    29.2730    -0.0356    12.8968 </r>
       <r>    29.4045    -0.0083    12.8957 </r>
       <r>    29.5359     0.2009    12.9221 </r>
       <r>    29.6674     0.5174    12.9901 </r>
       <r>    29.7988     0.4703    13.0520 </r>
       <r>    29.9302     0.1863    13.0764 </r>
       <r>    30.0617     0.0645    13.0849 </r>
       <r>    30.1931     0.1690    13.1071 </r>
       <r>    30.3246     0.3531    13.1536 </r>
       <r>    30.4560     0.3287    13.1968 </r>
       <r>    30.5875     0.1852    13.2211 </r>
       <r>    30.7189     0.4557    13.2810 </r>
       <r>    30.8504     1.0936    13.4247 </r>
       <r>    30.9818     0.9800    13.5536 </r>
       <r>    31.1133     0.4592    13.6139 </r>
       <r>    31.2447     0.4206    13.6692 </r>
       <r>    31.3762     0.5725    13.7445 </r>
       <r>    31.5076     0.5509    13.8169 </r>
       <r>    31.6391     0.3602    13.8642 </r>
       <r>    31.7705     0.3137    13.9055 </r>
       <r>    31.9020     0.4276    13.9617 </r>
       <r>    32.0334     0.5584    14.0351 </r>
       <r>    32.1649     0.7564    14.1345 </r>
       <r>    32.2963     0.6671    14.2222 </r>
       <r>    32.4278     0.2057    14.2492 </r>
       <r>    32.5592     0.0555    14.2565 </r>
       <r>    32.6907     0.2261    14.2862 </r>
       <r>    32.8221     0.5616    14.3601 </r>
       <r>    32.9536     0.9546    14.4855 </r>
       <r>    33.0850     0.8891    14.6024 </r>
       <r>    33.2165     0.4276    14.6586 </r>
       <r>    33.3479     0.7343    14.7551 </r>
       <r>    33.4794     1.1965    14.9124 </r>
       <r>    33.6108     0.8375    15.0225 </r>
       <r>    33.7423     0.4834    15.0860 </r>
       <r>    33.8737     0.4458    15.1446 </r>
       <r>    34.0052     0.6637    15.2319 </r>
       <r>    34.1366     0.8650    15.3456 </r>
       <r>    34.2680     0.7967    15.4503 </r>
       <r>    34.3995     0.7988    15.5553 </r>
       <r>    34.5309     0.8882    15.6721 </r>
       <r>    34.6624     0.7059    15.7649 </r>
       <r>    34.7938     0.5472    15.8368 </r>
       <r>    34.9253     0.5871    15.9140 </r>
       <r>    35.0567     0.8179    16.0215 </r>
       <r>    35.1882     0.9308    16.1438 </r>
       <r>    35.3196     0.4886    16.2080 </r>
       <r>    35.4511     0.1785    16.2315 </r>
       <r>    35.5825     0.3296    16.2748 </r>
       <r>    35.7140     0.6502    16.3603 </r>
       <r>    35.8454     0.7674    16.4612 </r>
       <r>    35.9769     0.7866    16.5646 </r>
       <r>    36.1083     0.6865    16.6548 </r>
       <r>    36.2398     0.2902    16.6930 </r>
       <r>    36.3712     0.0145    16.6949 </r>
       <r>    36.5027     0.2188    16.7236 </r>
       <r>    36.6341     0.5715    16.7988 </r>
       <r>    36.7656     0.4363    16.8561 </r>
       <r>    36.8970     0.2488    16.8888 </r>
       <r>    37.0285     0.4363    16.9462 </r>
       <r>    37.1599     0.6463    17.0311 </r>
       <r>    37.2914     0.6341    17.1145 </r>
       <r>    37.4228     0.5990    17.1932 </r>
       <r>    37.5543     0.4680    17.2547 </r>
       <r>    37.6857     0.1888    17.2795 </r>
       <r>    37.8172     0.0336    17.2840 </r>
       <r>    37.9486     0.2492    17.3167 </r>
       <r>    38.0801     0.4128    17.3710 </r>
       <r>    38.2115     0.2094    17.3985 </r>
       <r>    38.3430     0.0718    17.4080 </r>
       <r>    38.4744     0.0708    17.4173 </r>
       <r>    38.6058     0.0308    17.4213 </r>
       <r>    38.7373     0.1086    17.4356 </r>
       <r>    38.8687     0.2897    17.4737 </r>
       <r>    39.0002     0.2652    17.5085 </r>
       <r>    39.1316     0.1291    17.5255 </r>
       <r>    39.2631     0.2016    17.5520 </r>
       <r>    39.3945     0.2607    17.5863 </r>
       <r>    39.5260     0.1938    17.6117 </r>
       <r>    39.6574     0.1634    17.6332 </r>
       <r>    39.7889     0.0705    17.6425 </r>
       <r>    39.9203     0.0705    17.6518 </r>
       <r>    40.0518     0.1984    17.6779 </r>
       <r>    40.1832     0.4591    17.7382 </r>
       <r>    40.3147     0.6166    17.8193 </r>
       <r>    40.4461     0.4828    17.8827 </r>
       <r>    40.5776     0.2015    17.9092 </r>
       <r>    40.7090     0.0342    17.9137 </r>
       <r>    40.8405     0.0007    17.9138 </r>
       <r>    40.9719     0.0076    17.9148 </r>
       <r>    41.1034     0.0670    17.9236 </r>
       <r>    41.2348     0.1237    17.9399 </r>
       <r>    41.3663     0.0873    17.9513 </r>
       <r>    41.4977     0.0168    17.9535 </r>
       <r>    41.6292     0.0417    17.9590 </r>
       <r>    41.7606     0.0878    17.9706 </r>
       <r>    41.8921     0.0719    17.9800 </r>
       <r>    42.0235     0.0875    17.9915 </r>
       <r>    42.1550     0.0631    17.9998 </r>
       <r>    42.2864     0.0067    18.0007 </r>
       <r>    42.4179    -0.0043    18.0001 </r>
       <r>    42.5493    -0.0009    18.0000 </r>
       <r>    42.6808    -0.0001    18.0000 </r>
       <r>    42.8122     0.0000    18.0000 </r>
       <r>    42.9437     0.0000    18.0000 </r>
       <r>    43.0751     0.0000    18.0000 </r>
       <r>    43.2065     0.0000    18.0000 </r>
       <r>    43.3380     0.0000    18.0000 </r>
       <r>    43.4694     0.0000    18.0000 </r>
       <r>    43.6009     0.0000    18.0000 </r>
       <r>    43.7323     0.0000    18.0000 </r>
       <r>    43.8638     0.0000    18.0000 </r>
       <r>    43.9952     0.0000    18.0000 </r>
      </set>
     </set>
    </array>
   </total>
  </dos>
 </calculation>
 <structure name="finalpos" >
  <crystal>
   <varray name="basis" >
    <v>       2.47558084       0.00000000       0.00000000 </v>
    <v>       1.23779042       2.14391590       0.00000000 </v>
    <v>       1.23779042       0.71463863       2.02130329 </v>
   </varray>
   <i name="volume">     10.72794013 </i>
   <varray name="rec_basis" >
    <v>       0.40394560      -0.23321810      -0.16491010 </v>
    <v>       0.00000000       0.46643621      -0.16491010 </v>
    <v>       0.00000000       0.00000000       0.49473031 </v>
   </varray>
  </crystal>
  <varray name="positions" >
   <v>       0.00000000       0.00000000       0.00000000 </v>
  </varray>
 </structure>
</modeling>
