unknown system                          
           1
     2.475581    0.000000    0.000000
     1.237790    2.143916    0.000000
     1.237790    0.714639    2.021303
   Pd
   1
Direct configuration=     1
   0.00000000  0.00000000  0.00000000
