unknown system                          
   1.00000000000000     
     2.640620    0.000000    0.000000
     1.320310    2.286844    0.000000
     1.320310    0.762281    2.156057
   Pd
     1
Direct
  0.000000  0.000000  0.000000
 
   24   24   24
  81.294      78.189      69.880      58.698      46.891      35.773      25.912      17.733      11.688      7.9195    
  5.9503      4.9427      4.6137      4.9427      5.9503      7.9195      11.688      17.733      25.912      35.773    
  46.891      58.698      69.880      78.189      78.189      72.494      62.829      51.514      40.281      29.988    
  21.104      14.110      9.3549      6.6682      5.2992      4.6487      4.6491      5.2996      6.6680      9.3545    
  14.110      21.104      29.988      40.280      51.514      62.830      72.494      78.189      69.880      62.830    
  53.188      42.773      32.733      23.704      16.223      10.766      7.4229      5.6714      4.7437      4.4430    
  4.7437      5.6714      7.4229      10.766      16.223      23.704      32.733      42.773      53.188      62.830    
  69.880      72.494      58.698      51.515      42.773      33.703      25.119      17.660      11.898      8.1080    
  6.0081      4.8689      4.3250      4.3244      4.8682      6.0086      8.1086      11.897      17.660      25.119    
  33.704      42.773      51.514      58.697      62.830      62.829      46.891      40.281      32.733      25.119    
  18.168      12.526      8.5908      6.2736      4.9871      4.2720      4.0461      4.2720      4.9871      6.2736    
  8.5907      12.526      18.168      25.119      32.733      40.281      46.891      51.514      53.189      51.514    
  35.773      29.988      23.704      17.660      12.526      8.7637      6.4223      5.0714      4.2568      3.8820    
  3.8828      4.2577      5.0708      6.4214      8.7643      12.526      17.659      23.704      29.989      35.774    
  40.280      42.773      42.773      40.281      25.912      21.104      16.223      11.898      8.5903      6.4214    
  5.1010      4.2572      3.8024      3.6617      3.8023      4.2572      5.1010      6.4214      8.5903      11.898    
  16.223      21.103      25.912      29.989      32.733      33.703      32.733      29.989      17.733      14.110    
  10.766      8.1085      6.2739      5.0708      4.2564      3.7795      3.5670      3.5662      3.7786      4.2569    
  5.0715      6.2735      8.1080      10.767      14.110      17.732      21.104      23.704      25.119      25.119    
  23.704      21.105      11.689      9.3548      7.4226      6.0084      4.9879      4.2571      3.8021      3.5667    
  3.4956      3.5667      3.8021      4.2572      4.9879      6.0084      7.4226      9.3548      11.688      14.110    
  16.222      17.660      18.169      17.660      16.222      14.110      7.9196      6.6682      5.6711      4.8685    
  4.2721      3.8825      3.6621      3.5664      3.5668      3.6626      3.8823      4.2717      4.8685      5.6712    
  6.6680      7.9196      9.3549      10.767      11.897      12.526      12.526      11.898      10.766      9.3545    
  5.9504      5.2993      4.7437      4.3247      4.0456      3.8825      3.8023      3.7789      3.8023      3.8825    
  4.0456      4.3246      4.7437      5.2993      5.9505      6.6681      7.4229      8.1084      8.5903      8.7638    
  8.5903      8.1083      7.4229      6.6680      4.9427      4.6487      4.4432      4.3246      4.2720      4.2573    
  4.2566      4.2566      4.2572      4.2718      4.3246      4.4435      4.6490      4.9425      5.2993      5.6711    
  6.0085      6.2738      6.4218      6.4219      6.2737      6.0083      5.6712      5.2996      4.6137      4.6490    
  4.7436      4.8684      4.9877      5.0712      5.1009      5.0712      4.9877      4.8684      4.7436      4.6489    
  4.6136      4.6489      4.7436      4.8684      4.9877      5.0712      5.1009      5.0712      4.9877      4.8684    
  4.7436      4.6490      4.9427      5.2996      5.6712      6.0083      6.2737      6.4219      6.4218      6.2738    
  6.0085      5.6711      5.2993      4.9425      4.6490      4.4435      4.3246      4.2718      4.2572      4.2566    
  4.2566      4.2573      4.2720      4.3246      4.4432      4.6487      5.9504      6.6680      7.4229      8.1083    
  8.5903      8.7638      8.5903      8.1084      7.4229      6.6681      5.9505      5.2993      4.7437      4.3246    
  4.0456      3.8825      3.8023      3.7789      3.8023      3.8825      4.0456      4.3247      4.7437      5.2993    
  7.9196      9.3545      10.766      11.898      12.526      12.526      11.897      10.767      9.3549      7.9196    
  6.6680      5.6712      4.8685      4.2717      3.8823      3.6626      3.5668      3.5664      3.6621      3.8825    
  4.2721      4.8685      5.6711      6.6682      11.689      14.110      16.222      17.660      18.169      17.660    
  16.222      14.110      11.688      9.3548      7.4226      6.0084      4.9879      4.2572      3.8021      3.5667    
  3.4956      3.5667      3.8021      4.2571      4.9879      6.0084      7.4226      9.3548      17.733      21.105    
  23.704      25.119      25.119      23.704      21.104      17.732      14.110      10.767      8.1080      6.2735    
  5.0715      4.2569      3.7786      3.5662      3.5670      3.7795      4.2564      5.0708      6.2739      8.1085    
  10.766      14.110      25.912      29.989      32.733      33.703      32.733      29.989      25.912      21.103    
  16.223      11.898      8.5903      6.4214      5.1010      4.2572      3.8023      3.6617      3.8024      4.2572    
  5.1010      6.4214      8.5903      11.898      16.223      21.104      35.773      40.281      42.773      42.773    
  40.280      35.774      29.989      23.704      17.659      12.526      8.7643      6.4214      5.0708      4.2577    
  3.8828      3.8820      4.2568      5.0714      6.4223      8.7637      12.526      17.660      23.704      29.988    
  46.891      51.514      53.189      51.514      46.891      40.281      32.733      25.119      18.168      12.526    
  8.5907      6.2736      4.9871      4.2720      4.0461      4.2720      4.9871      6.2736      8.5908      12.526    
  18.168      25.119      32.733      40.281      58.698      62.829      62.830      58.697      51.514      42.773    
  33.704      25.119      17.660      11.897      8.1086      6.0086      4.8682      4.3244      4.3250      4.8689    
  6.0081      8.1080      11.898      17.660      25.119      33.703      42.773      51.515      69.880      72.494    
  69.880      62.830      53.188      42.773      32.733      23.704      16.223      10.766      7.4229      5.6714    
  4.7437      4.4430      4.7437      5.6714      7.4229      10.766      16.223      23.704      32.733      42.773    
  53.188      62.830      78.189      78.189      72.494      62.830      51.514      40.280      29.988      21.104    
  14.110      9.3545      6.6680      5.2996      4.6491      4.6487      5.2992      6.6682      9.3549      14.110    
  21.104      29.988      40.281      51.514      62.829      72.494      78.189      72.494      62.829      51.514    
  40.281      29.988      21.104      14.110      9.3549      6.6682      5.2992      4.6487      4.6491      5.2996    
  6.6680      9.3545      14.110      21.104      29.988      40.280      51.514      62.830      72.494      78.189    
  72.494      64.987      54.800      43.916      33.548      24.298      16.642      11.034      7.5751      5.7632    
  4.8125      4.5033      4.8124      5.7632      7.5753      11.035      16.642      24.297      33.548      43.916    
  54.800      64.988      72.495      75.288      62.829      54.800      45.209      35.470      26.410      18.586    
  12.510      8.4661      6.2093      5.0094      4.4349      4.4343      5.0087      6.2097      8.4668      12.510    
  18.586      26.410      35.471      45.209      54.800      62.830      67.502      67.502      51.514      43.916    
  35.471      27.149      19.636      13.515      9.1836      6.5997      5.1982      4.4236      4.1769      4.4237    
  5.1982      6.5995      9.1835      13.515      19.636      27.149      35.471      43.916      51.514      56.942    
  58.931      56.943      40.280      33.548      26.411      19.637      13.870      9.5817      6.8708      5.3452    
  4.4423      4.0215      4.0224      4.4432      5.3444      6.8699      9.5824      13.871      19.636      26.410    
  33.548      40.281      45.665      48.700      48.700      45.666      29.988      24.297      18.586      13.516    
  9.5821      6.9670      5.4232      4.4664      3.9425      3.7794      3.9425      4.4664      5.4232      6.9671    
  9.5821      13.515      18.586      24.297      29.988      34.911      38.292      39.501      38.292      34.911    
  21.104      16.642      12.510      9.1836      6.8709      5.4228      4.4752      3.9112      3.6579      3.6572    
  3.9104      4.4759      5.4236      6.8702      9.1829      12.510      16.643      21.104      25.285      28.551    
  30.348      30.348      28.550      25.286      14.110      11.035      8.4660      6.5996      5.3452      4.4659    
  3.9105      3.6211      3.5333      3.6210      3.9104      4.4658      5.3452      6.5998      8.4662      11.035    
  14.110      17.285      20.060      21.959      22.634      21.959      20.061      17.286      9.3549      7.5754    
  6.2094      5.1985      4.4429      3.9427      3.6574      3.5327      3.5331      3.6578      3.9424      4.4425    
  5.1988      6.2098      7.5752      9.3547      11.398      13.401      15.003      15.894      15.895      15.004    
  13.401      11.398      6.6680      5.7631      5.0092      4.4235      4.0219      3.7800      3.6575      3.6208    
  3.6576      3.7802      4.0220      4.4234      5.0089      5.7629      6.6681      7.7530      8.9282      10.002    
  10.758      11.030      10.758      10.002      8.9280      7.7528      5.2993      4.8125      4.4347      4.1765    
  4.0220      3.9425      3.9108      3.9108      3.9425      4.0220      4.1765      4.4346      4.8124      5.2993    
  5.8518      6.4294      6.9944      7.4573      7.7199      7.7199      7.4574      6.9943      6.4293      5.8517    
  4.6489      4.5035      4.4344      4.4237      4.4430      4.4659      4.4755      4.4658      4.4427      4.4235    
  4.4345      4.5037      4.6490      4.8682      5.1356      5.4078      5.6383      5.7935      5.8487      5.7935    
  5.6383      5.4079      5.1358      4.8684      4.6490      4.8125      5.0089      5.1986      5.3448      5.4233    
  5.4232      5.3447      5.1987      5.0090      4.8124      4.6489      4.5482      4.5190      4.5480      4.6077    
  4.6675      4.7034      4.7033      4.6674      4.6078      4.5481      4.5189      4.5481      5.2995      5.7630    
  6.2096      6.5995      6.8703      6.9677      6.8706      6.5997      6.2096      5.7628      5.2993      4.8682    
  4.5189      4.2724      4.1219      4.0437      4.0107      4.0024      4.0109      4.0438      4.1217      4.2722    
  4.5188      4.8683      6.6681      7.5753      8.4666      9.1832      9.5821      9.5820      9.1832      8.4667    
  7.5754      6.6681      5.8517      5.1357      4.5481      4.1218      3.8487      3.6968      3.6314      3.6313    
  3.6967      3.8488      4.1219      4.5480      5.1356      5.8517      9.3548      11.035      12.510      13.515    
  13.871      13.515      12.510      11.035      9.3551      7.7531      6.4292      5.4078      4.6080      4.0438    
  3.6965      3.5180      3.4641      3.5178      3.6964      4.0438      4.6081      5.4079      6.4292      7.7529    
  14.110      16.642      18.586      19.637      19.637      18.586      16.642      14.110      11.398      8.9284    
  6.9941      5.6380      4.6677      4.0110      3.6311      3.4636      3.4641      3.6317      4.0105      4.6671    
  5.6384      6.9946      8.9280      11.398      21.104      24.298      26.410      27.148      26.411      24.298    
  21.104      17.285      13.401      10.002      7.4574      5.7930      4.7033      4.0028      3.6314      3.5173    
  3.6314      4.0029      4.7034      5.7929      7.4571      10.002      13.401      17.285      29.988      33.548    
  35.471      35.470      33.548      29.989      25.286      20.060      15.003      10.758      7.7202      5.8484    
  4.7030      4.0113      3.6971      3.6962      4.0104      4.7038      5.8493      7.7195      10.758      15.004    
  20.061      25.285      40.280      43.916      45.209      43.916      40.280      34.911      28.551      21.959    
  15.894      11.030      7.7204      5.7935      4.6669      4.0439      3.8493      4.0438      4.6668      5.7934    
  7.7204      11.031      15.894      21.959      28.551      34.910      51.514      54.799      54.800      51.514    
  45.665      38.291      30.348      22.634      15.894      10.758      7.4577      5.6386      4.6074      4.1214    
  4.1223      4.6083      5.6378      7.4568      10.758      15.895      22.634      30.348      38.292      45.666    
  62.830      64.987      62.829      56.943      48.700      39.501      30.348      21.959      15.003      10.002    
  6.9944      5.4083      4.5480      4.2718      4.5481      5.4083      6.9944      10.002      15.003      21.959    
  30.348      39.501      48.700      56.943      72.495      72.494      67.502      58.931      48.700      38.291    
  28.551      20.061      13.401      8.9278      6.4292      5.1361      4.5192      4.5186      5.1355      6.4296    
  8.9285      13.401      20.061      28.551      38.292      48.700      58.931      67.502      78.189      75.289    
  67.502      56.943      45.666      34.910      25.285      17.286      11.398      7.7529      5.8515      4.8684    
  4.5484      4.8684      5.8515      7.7529      11.398      17.286      25.285      34.910      45.666      56.943    
  67.502      75.289      69.880      62.830      53.188      42.773      32.733      23.704      16.223      10.766    
  7.4229      5.6714      4.7437      4.4430      4.7437      5.6714      7.4229      10.766      16.223      23.704    
  32.733      42.773      53.188      62.830      69.880      72.494      62.829      54.800      45.209      35.470    
  26.410      18.586      12.510      8.4661      6.2093      5.0094      4.4349      4.4343      5.0087      6.2097    
  8.4668      12.510      18.586      26.410      35.471      45.209      54.800      62.830      67.502      67.502    
  53.188      45.209      36.424      27.846      20.140      13.859      9.3932      6.7153      5.2718      4.4768    
  4.2229      4.4769      5.2718      6.7152      9.3932      13.859      20.140      27.846      36.424      45.209    
  53.188      58.931      61.043      58.931      42.773      35.470      27.846      20.681      14.589      10.029    
  7.1182      5.4906      4.5420      4.0967      4.0974      4.5429      5.4899      7.1173      10.029      14.590    
  20.681      27.846      35.471      42.773      48.700      52.074      52.074      48.700      32.733      26.410    
  20.141      14.590      10.254      7.3409      5.6326      4.6038      4.0345      3.8563      4.0345      4.6038    
  5.6326      7.3409      10.254      14.590      20.141      26.410      32.733      38.292      42.167      43.565    
  42.167      38.292      23.704      18.586      13.859      10.029      7.3417      5.6816      4.6382      4.0097    
  3.7252      3.7244      4.0089      4.6390      5.6826      7.3412      10.028      13.859      18.586      23.704    
  28.550      32.386      34.520      34.519      32.385      28.551      16.223      12.510      9.3924      7.1179    
  5.6330      4.6385      4.0026      3.6686      3.5670      3.6686      4.0025      4.6385      5.6330      7.1179    
  9.3924      12.510      16.223      20.061      23.437      25.766      26.599      25.766      23.437      20.061    
  10.767      8.4666      6.7150      5.4900      4.6035      4.0096      3.6684      3.5187      3.5192      3.6688    
  4.0090      4.6029      5.4905      6.7157      8.4664      10.766      13.401      15.982      18.053      19.208    
  19.209      18.053      15.982      13.401      7.4229      6.2097      5.2722      4.5421      4.0345      3.7251    
  3.5666      3.5188      3.5666      3.7251      4.0345      4.5422      5.2722      6.2097      7.4229      8.9281    
  10.569      12.070      13.128      13.509      13.128      12.070      10.569      8.9281      5.6711      5.0092    
  4.4769      4.0969      3.8568      3.7248      3.6686      3.6686      3.7248      3.8570      4.0972      4.4767    
  5.0089      5.6710      6.4294      7.2844      8.1492      8.8664      9.2748      9.2747      8.8662      8.1491    
  7.2843      6.4293      4.7437      4.4347      4.2225      4.0971      4.0345      4.0092      4.0029      4.0092    
  4.0345      4.0971      4.2225      4.4346      4.7437      5.1357      5.5696      5.9938      6.3685      6.6330    
  6.7290      6.6330      6.3685      5.9937      5.5696      5.1356      4.4433      4.4346      4.4768      4.5425    
  4.6034      4.6387      4.6385      4.6030      4.5424      4.4769      4.4346      4.4434      4.5190      4.6568    
  4.8319      5.0075      5.1468      5.2229      5.2228      5.1467      5.0078      4.8322      4.6567      4.5187    
  4.7437      5.0090      5.2722      5.4901      5.6326      5.6823      5.6326      5.4902      5.2722      5.0090    
  4.7437      4.5189      4.3624      4.2794      4.2548      4.2634      4.2801      4.2877      4.2801      4.2634    
  4.2548      4.2794      4.3625      4.5189      5.6711      6.2095      6.7153      7.1176      7.3414      7.3415    
  7.1179      6.7155      6.2095      5.6710      5.1357      4.6567      4.2793      4.0166      3.8554      3.7696    
  3.7342      3.7342      3.7697      3.8553      4.0164      4.2792      4.6568      5.1359      7.4230      8.4666    
  9.3927      10.029      10.255      10.029      9.3927      8.4666      7.4230      6.4294      5.5695      4.8319    
  4.2549      3.8554      3.6117      3.4868      3.4492      3.4868      3.6117      3.8554      4.2549      4.8319    
  5.5695      6.4293      10.767      12.510      13.859      14.589      14.590      13.859      12.510      10.767    
  8.9285      7.2846      5.9936      5.0074      4.2636      3.7698      3.4866      3.3622      3.3625      3.4870    
  3.7695      4.2634      5.0079      5.9940      7.2841      8.9278      16.223      18.586      20.141      20.681    
  20.141      18.586      16.223      13.401      10.569      8.1497      6.3685      5.1464      4.2801      3.7346    
  3.4491      3.3620      3.4491      3.7346      4.2801      5.1463      6.3685      8.1497      10.569      13.401    
  23.704      26.411      27.846      27.846      26.410      23.704      20.061      15.982      12.070      8.8667    
  6.6334      5.2225      4.2873      3.7346      3.4872      3.4865      3.7339      4.2880      5.2232      6.6325    
  8.8659      12.070      15.983      20.061      32.732      35.471      36.424      35.471      32.732      28.551    
  23.438      18.053      13.127      9.2748      6.7295      5.2228      4.2795      3.7697      3.6124      3.7697    
  4.2796      5.2228      6.7295      9.2748      13.127      18.053      23.438      28.551      42.773      45.208    
  45.209      42.773      38.291      32.385      25.766      19.209      13.509      9.2744      6.6334      5.1472    
  4.2631      3.8549      3.8558      4.2639      5.1463      6.6325      9.2752      13.510      19.208      25.765    
  32.386      38.292      53.188      54.799      53.188      48.700      42.167      34.519      26.598      19.209    
  13.128      8.8658      6.3685      5.0082      4.2548      4.0160      4.2548      5.0082      6.3685      8.8657    
  13.128      19.209      26.598      34.519      42.167      48.700      62.830      62.829      58.931      52.074    
  43.565      34.519      25.766      18.054      12.070      8.1488      5.9935      4.8324      4.2796      4.2789    
  4.8317      5.9941      8.1496      12.070      18.053      25.766      34.520      43.565      52.074      58.931    
  69.880      67.502      61.042      52.074      42.167      32.385      23.438      15.982      10.569      7.2842    
  5.5693      4.6568      4.3627      4.6568      5.5693      7.2842      10.569      15.982      23.438      32.385    
  42.167      52.074      61.042      67.502      72.495      67.502      58.931      48.700      38.292      28.551    
  20.061      13.401      8.9285      6.4296      5.1355      4.5186      4.5192      5.1361      6.4292      8.9278    
  13.401      20.061      28.551      38.291      48.700      58.931      67.502      72.494      58.698      51.515    
  42.773      33.703      25.119      17.660      11.898      8.1080      6.0081      4.8689      4.3250      4.3244    
  4.8682      6.0086      8.1086      11.897      17.660      25.119      33.704      42.773      51.514      58.697    
  62.830      62.829      51.514      43.916      35.471      27.149      19.636      13.515      9.1836      6.5997    
  5.1982      4.4236      4.1769      4.4237      5.1982      6.5995      9.1835      13.515      19.636      27.149    
  35.471      43.916      51.514      56.942      58.931      56.943      42.773      35.470      27.846      20.681    
  14.589      10.029      7.1182      5.4906      4.5420      4.0967      4.0974      4.5429      5.4899      7.1173    
  10.029      14.590      20.681      27.846      35.471      42.773      48.700      52.074      52.074      48.700    
  33.703      27.148      20.680      14.964      10.492      7.4742      5.7055      4.6515      4.0665      3.8832    
  4.0665      4.6515      5.7055      7.4740      10.491      14.964      20.681      27.149      33.703      39.502    
  43.565      45.036      43.565      39.502      25.119      19.636      14.589      10.492      7.6020      5.8205    
  4.7249      4.0620      3.7608      3.7601      4.0613      4.7256      5.8213      7.6013      10.491      14.590    
  19.637      25.119      30.348      34.520      36.855      36.855      34.519      30.348      17.660      13.515    
  10.028      7.4746      5.8212      4.7512      4.0635      3.7003      3.5895      3.7002      4.0635      4.7513    
  5.8213      7.4745      10.028      13.515      17.660      21.959      25.766      28.409      29.357      28.408    
  25.765      21.959      11.898      9.1835      7.1176      5.7053      4.7254      4.0642      3.6824      3.5145    
  3.5150      3.6830      4.0637      4.7249      5.7057      7.1181      9.1829      11.897      15.004      18.053    
  20.511      21.887      21.888      20.511      18.053      15.003      8.1082      6.5999      5.4903      4.6508    
  4.0617      3.7006      3.5147      3.4585      3.5148      3.7006      4.0616      4.6507      5.4903      6.6000    
  8.1084      10.002      12.070      13.965      15.303      15.787      15.303      13.965      12.070      10.002    
  6.0083      5.1987      4.5424      4.0664      3.7604      3.5892      3.5148      3.5147      3.5890      3.7606    
  4.0666      4.5423      5.1985      6.0084      6.9945      8.1493      9.3317      10.317      10.879      10.878    
  10.316      9.3318      8.1494      6.9943      4.8686      4.4236      4.0970      3.8836      3.7604      3.7002    
  3.6827      3.7003      3.7605      3.8837      4.0971      4.4236      4.8684      5.4077      5.9938      6.6000    
  7.1593      7.5613      7.7082      7.5611      7.1590      6.5998      5.9938      5.4079      4.3247      4.1766    
  4.0971      4.0665      4.0616      4.0640      4.0639      4.0616      4.0665      4.0971      4.1765      4.3247    
  4.5481      4.8319      5.1406      5.4265      5.6468      5.7686      5.7685      5.6467      5.4266      5.1406    
  4.8319      4.5480      4.3246      4.4237      4.5425      4.6510      4.7253      4.7514      4.7252      4.6508    
  4.5424      4.4237      4.3247      4.2723      4.2794      4.3396      4.4306      4.5229      4.5899      4.6142    
  4.5900      4.5230      4.4308      4.3397      4.2792      4.2721      4.8684      5.1986      5.4902      5.7054    
  5.8209      5.8210      5.7055      5.4902      5.1986      4.8685      4.5481      4.2793      4.0850      3.9654    
  3.9044      3.8799      3.8730      3.8731      3.8800      3.9043      3.9654      4.0851      4.2794      4.5480    
  6.0084      6.5995      7.1176      7.4744      7.6016      7.4745      7.1178      6.5997      6.0084      5.4077    
  4.8319      4.3395      3.9653      3.7115      3.5587      3.4808      3.4574      3.4807      3.5586      3.7114    
  3.9653      4.3396      4.8321      5.4079      8.1084      9.1833      10.029      10.491      10.492      10.029    
  9.1831      8.1083      6.9945      5.9938      5.1405      4.4305      3.9045      3.5588      3.3607      3.2732    
  3.2734      3.3608      3.5586      3.9043      4.4307      5.1407      5.9937      6.9943      11.898      13.515    
  14.590      14.964      14.589      13.515      11.898      10.002      8.1494      6.6003      5.4266      4.5227    
  3.8800      3.4811      3.2733      3.2099      3.2733      3.4811      3.8801      4.5229      5.4266      6.6001    
  8.1491      10.002      17.660      19.637      20.681      20.681      19.637      17.660      15.004      12.070    
  9.3315      7.1596      5.6470      4.5896      3.8728      3.4576      3.2736      3.2730      3.4571      3.8733    
  4.5902      5.6465      7.1590      9.3320      12.070      15.003      25.119      27.149      27.846      27.149    
  25.119      21.959      18.054      13.965      10.316      7.5613      5.7690      4.6141      3.8725      3.4807    
  3.3612      3.4809      3.8726      4.6140      5.7688      7.5613      10.316      13.965      18.054      21.959    
  33.703      35.470      35.471      33.703      30.348      25.766      20.511      15.303      10.878      7.7078    
  5.7689      4.5903      3.8796      3.5582      3.5591      3.8805      4.5895      5.7680      7.7085      10.879    
  15.303      20.510      25.766      30.349      42.773      43.916      42.773      39.502      34.519      28.408    
  21.887      15.787      10.878      7.5606      5.6467      4.5237      3.9044      3.7109      3.9044      4.5236    
  5.6468      7.5607      10.879      15.787      21.887      28.408      34.519      39.502      51.514      51.514    
  48.699      43.565      36.855      29.357      21.887      15.304      10.317      7.1586      5.4262      4.4311    
  3.9658      3.9649      4.4302      5.4269      7.1596      10.316      15.303      21.887      29.357      36.854    
  43.565      48.700      58.698      56.942      52.073      45.036      36.855      28.408      20.510      13.965    
  9.3321      6.5998      5.1401      4.3396      4.0855      4.3396      5.1401      6.5998      9.3321      13.965    
  20.510      28.408      36.855      45.036      52.073      56.942      62.830      58.931      52.074      43.565    
  34.520      25.766      18.053      12.070      8.1496      5.9941      4.8317      4.2789      4.2796      4.8324    
  5.9935      8.1488      12.070      18.054      25.766      34.519      43.565      52.074      58.931      62.829    
  62.830      56.943      48.700      39.501      30.348      21.959      15.003      10.002      6.9944      5.4083    
  4.5481      4.2718      4.5480      5.4083      6.9944      10.002      15.003      21.959      30.348      39.501    
  48.700      56.943      62.829      64.987      46.891      40.281      32.733      25.119      18.168      12.526    
  8.5908      6.2736      4.9871      4.2720      4.0461      4.2720      4.9871      6.2736      8.5907      12.526    
  18.168      25.119      32.733      40.281      46.891      51.514      53.189      51.514      40.280      33.548    
  26.411      19.637      13.870      9.5817      6.8708      5.3452      4.4423      4.0215      4.0224      4.4432    
  5.3444      6.8699      9.5824      13.871      19.636      26.410      33.548      40.281      45.665      48.700    
  48.700      45.666      32.733      26.410      20.141      14.590      10.254      7.3409      5.6326      4.6038    
  4.0345      3.8563      4.0345      4.6038      5.6326      7.3409      10.254      14.590      20.141      26.410    
  32.733      38.292      42.167      43.565      42.167      38.292      25.119      19.636      14.589      10.492    
  7.6020      5.8205      4.7249      4.0620      3.7608      3.7601      4.0613      4.7256      5.8213      7.6013    
  10.491      14.590      19.637      25.119      30.348      34.520      36.855      36.855      34.519      30.348    
  18.169      13.870      10.254      7.6017      5.8873      4.7903      4.0847      3.7113      3.5973      3.7113    
  4.0847      4.7903      5.8873      7.6017      10.254      13.870      18.169      22.634      26.598      29.357    
  30.349      29.357      26.598      22.634      12.526      9.5823      7.3412      5.8206      4.7906      4.0945    
  3.6913      3.5137      3.5142      3.6918      4.0940      4.7901      5.8212      7.3418      9.5818      12.525    
  15.895      19.209      21.887      23.391      23.391      21.887      19.208      15.894      8.5903      6.8708    