unknown system                          
   1.00000000000000     
     2.640620    0.000000    0.000000
     1.320310    2.286844    0.000000
     1.320310    0.762281    2.156057
   Pd
     1
Direct
  0.000000  0.000000  0.000000
 
   24   24   24
 0.81294171815E+02 0.78188501623E+02 0.69879620543E+02 0.58697975707E+02 0.46891368210E+02
 0.35772931181E+02 0.25911853648E+02 0.17732520992E+02 0.11688297780E+02 0.79194853135E+01
 0.59503029661E+01 0.49426866293E+01 0.46136911098E+01 0.49426866293E+01 0.59503029661E+01
 0.79194853135E+01 0.11688297780E+02 0.17732520992E+02 0.25911853648E+02 0.35772931181E+02
 0.46891368210E+02 0.58697975707E+02 0.69879620543E+02 0.78188501623E+02 0.78188587920E+02
 0.72493926474E+02 0.62829346333E+02 0.51514278794E+02 0.40280860156E+02 0.29988299347E+02
 0.21103939646E+02 0.14109816433E+02 0.93548663446E+01 0.66681627103E+01 0.52991754293E+01
 0.46486909069E+01 0.46490621612E+01 0.52996408122E+01 0.66679631666E+01 0.93544761541E+01
 0.14109985228E+02 0.21104284114E+02 0.29988035446E+02 0.40280226586E+02 0.51514114320E+02
 0.62829766790E+02 0.72494376524E+02 0.78188743552E+02 0.69879702037E+02 0.62829661481E+02
 0.53188442386E+02 0.42772703640E+02 0.32732762822E+02 0.23704243760E+02 0.16222722824E+02
 0.10766345609E+02 0.74228926689E+01 0.56714054417E+01 0.47436719775E+01 0.44429993353E+01
 0.47436862855E+01 0.56714134957E+01 0.74228789214E+01 0.10766319919E+02 0.16222711725E+02
 0.23704256595E+02 0.32732772232E+02 0.42772660445E+02 0.53188325469E+02 0.62829508371E+02
 0.69879592635E+02 0.72494233971E+02 0.58697718808E+02 0.51514621990E+02 0.42773189389E+02
 0.33702699921E+02 0.25118724034E+02 0.17660180420E+02 0.11897878048E+02 0.81079741783E+01
 0.60081400755E+01 0.48688550568E+01 0.43249619047E+01 0.43243508748E+01 0.48681596213E+01
 0.60085865187E+01 0.81085706657E+01 0.11897431250E+02 0.17659637704E+02 0.25119304232E+02
 0.33703515608E+02 0.42772896974E+02 0.51513780917E+02 0.58697488186E+02 0.62829536419E+02
 0.62829423594E+02 0.46890808631E+02 0.40280773859E+02 0.32733240907E+02 0.25118980933E+02
 0.18168324425E+02 0.12525922338E+02 0.85907508758E+01 0.62736440843E+01 0.49870971169E+01
 0.42719540823E+01 0.40460553189E+01 0.42719651086E+01 0.49871071514E+01 0.62736412216E+01
 0.85907365618E+01 0.12525911075E+02 0.18168332723E+02 0.25119012840E+02 0.32733284434E+02
 0.40280813359E+02 0.46890833463E+02 0.51514037816E+02 0.53188803554E+02 0.51514028023E+02
 0.35772553176E+02 0.29987835044E+02 0.23704392915E+02 0.17660301527E+02 0.12525544332E+02
 0.87636588493E+01 0.64222626737E+01 0.50714422580E+01 0.42567643686E+01 0.38819717175E+01
 0.38828117052E+01 0.42576990999E+01 0.50707942468E+01 0.64214407937E+01 0.87642605056E+01
 0.12526202622E+02 0.17659487463E+02 0.23703522759E+02 0.29988538389E+02 0.35773571004E+02
 0.40280435354E+02 0.42772775867E+02 0.42773267302E+02 0.40280690889E+02 0.25911935141E+02
 0.21103510460E+02 0.16222722824E+02 0.11898136632E+02 0.85902727907E+01 0.64213691851E+01
 0.51009833839E+01 0.42571879707E+01 0.38023508133E+01 0.36617090899E+01 0.38023413960E+01
 0.42571792613E+01 0.51009823560E+01 0.64213663810E+01 0.85902509898E+01 0.11898088304E+02
 0.16222664206E+02 0.21103475306E+02 0.25911942476E+02 0.29988675866E+02 0.32732806349E+02
 0.33702743226E+02 0.32732772232E+02 0.29988637226E+02 0.17732823548E+02 0.14109600174E+02
 0.10766271903E+02 0.81085336340E+01 0.62739466409E+01 0.50707616955E+01 0.42563699313E+01
 0.37795005715E+01 0.35669686383E+01 0.35662182203E+01 0.37786439913E+01 0.42569005406E+01
 0.50714907713E+01 0.62734910765E+01 0.81080185684E+01 0.10766917411E+02 0.14110156354E+02
 0.17732047369E+02 0.21103688232E+02 0.23704203322E+02 0.25119315397E+02 0.25118744776E+02
 0.23703725188E+02 0.21104500374E+02 0.11688513504E+02 0.93547800475E+01 0.74225954516E+01
 0.60083969745E+01 0.49878724193E+01 0.42571423745E+01 0.38020535960E+01 0.35666660817E+01
 0.34955684226E+01 0.35666601736E+01 0.38020510124E+01 0.42571534336E+01 0.49879003669E+01
 0.60084336119E+01 0.74226222261E+01 0.93547851756E+01 0.11688489360E+02 0.14109853797E+02
 0.16222366988E+02 0.17659865469E+02 0.18169108026E+02 0.17659894603E+02 0.16222414508E+02
 0.14109898931E+02 0.79195958551E+01 0.66681869548E+01 0.56710660495E+01 0.48684876162E+01
 0.42720646239E+01 0.38824602650E+01 0.36621140310E+01 0.35664102353E+01 0.35667707152E+01
 0.36625823514E+01 0.38823210315E+01 0.42717162331E+01 0.48685288372E+01 0.56711912518E+01
 0.66680079605E+01 0.79195619682E+01 0.93548957172E+01 0.10766725396E+02 0.11897462279E+02
 0.12525714074E+02 0.12526021617E+02 0.11897798691E+02 0.10766438228E+02 0.93544519097E+01
 0.59503844595E+01 0.52992968522E+01 0.47436719775E+01 0.43246698799E+01 0.40455772337E+01
 0.38824688251E+01 0.38023413960E+01 0.37789114221E+01 0.38023482297E+01 0.38824666989E+01
 0.40455538090E+01 0.43246381253E+01 0.47436586652E+01 0.52993273435E+01 0.59504521629E+01
 0.66680833763E+01 0.74229194434E+01 0.81083562509E+01 0.85902509898E+01 0.87638473739E+01
 0.85902584767E+01 0.81083488926E+01 0.74228789214E+01 0.66680143378E+01 0.49427186077E+01
 0.46487452256E+01 0.44431962075E+01 0.43246397522E+01 0.42719970870E+01 0.42572891156E+01
 0.42566318002E+01 0.42566299624E+01 0.42571854120E+01 0.42717947963E+01 0.43246412728E+01
 0.44435044828E+01 0.46489547636E+01 0.49425141413E+01 0.52992602392E+01 0.56711126886E+01
 0.60084655904E+01 0.62737616547E+01 0.64218498853E+01 0.64218507780E+01 0.62736732000E+01
 0.60082976413E+01 0.56711526667E+01 0.52995864935E+01 0.46136827963E+01 0.46489758641E+01
 0.47436131056E+01 0.48684165203E+01 0.49876584164E+01 0.50711722527E+01 0.51009091761E+01
 0.50711882147E+01 0.49876763295E+01 0.48684182956E+01 0.47435854853E+01 0.46489227852E+01
 0.46136200431E+01 0.46489227852E+01 0.47435854853E+01 0.48684182956E+01 0.49876763295E+01
 0.50711882147E+01 0.51009091761E+01 0.50711722527E+01 0.49876584164E+01 0.48684165203E+01
 0.47436131056E+01 0.46489758641E+01 0.49427186077E+01 0.52995864935E+01 0.56711526667E+01
 0.60082976413E+01 0.62736732000E+01 0.64218507780E+01 0.64218498853E+01 0.62737616547E+01
 0.60084655904E+01 0.56711126886E+01 0.52992602392E+01 0.49425141413E+01 0.46489547636E+01
 0.44435044828E+01 0.43246412728E+01 0.42717947963E+01 0.42571854120E+01 0.42566299624E+01
 0.42566318002E+01 0.42572891156E+01 0.42719970870E+01 0.43246397522E+01 0.44431962075E+01
 0.46487452256E+01 0.59503844595E+01 0.66680143378E+01 0.74228789214E+01 0.81083488926E+01
 0.85902584767E+01 0.87638473739E+01 0.85902509898E+01 0.81083562509E+01 0.74229194434E+01
 0.66680833763E+01 0.59504521629E+01 0.52993273435E+01 0.47436586652E+01 0.43246381253E+01
 0.40455538090E+01 0.38824666989E+01 0.38023482297E+01 0.37789114221E+01 0.38023413960E+01
 0.38824688251E+01 0.40455772337E+01 0.43246698799E+01 0.47436719775E+01 0.52992968522E+01
 0.79195958551E+01 0.93544519097E+01 0.10766438228E+02 0.11897798691E+02 0.12526021617E+02
 0.12525714074E+02 0.11897462279E+02 0.10766725396E+02 0.93548957172E+01 0.79195619682E+01
 0.66680079605E+01 0.56711912518E+01 0.48685288372E+01 0.42717162331E+01 0.38823210315E+01
 0.36625823514E+01 0.35667707152E+01 0.35664102353E+01 0.36621140310E+01 0.38824602650E+01
 0.42720646239E+01 0.48684876162E+01 0.56710660495E+01 0.66681869548E+01 0.11688513504E+02
 0.14109898931E+02 0.16222414508E+02 0.17659894603E+02 0.18169108026E+02 0.17659865469E+02
 0.16222366988E+02 0.14109853797E+02 0.11688489360E+02 0.93547851756E+01 0.74226222261E+01
 0.60084336119E+01 0.49879003669E+01 0.42571534336E+01 0.38020510124E+01 0.35666601736E+01
 0.34955684226E+01 0.35666660817E+01 0.38020535960E+01 0.42571423745E+01 0.49878724193E+01
 0.60083969745E+01 0.74225954516E+01 0.93547800475E+01 0.17732823548E+02 0.21104500374E+02
 0.23703725188E+02 0.25118744776E+02 0.25119315397E+02 0.23704203322E+02 0.21103688232E+02
 0.17732047369E+02 0.14110156354E+02 0.10766917411E+02 0.81080185684E+01 0.62734910765E+01
 0.50714907713E+01 0.42569005406E+01 0.37786439913E+01 0.35662182203E+01 0.35669686383E+01
 0.37795005715E+01 0.42563699313E+01 0.50707616955E+01 0.62739466409E+01 0.81085336340E+01
 0.10766271903E+02 0.14109600174E+02 0.25911935141E+02 0.29988637226E+02 0.32732772232E+02
 0.33702743226E+02 0.32732806349E+02 0.29988675866E+02 0.25911942476E+02 0.21103475306E+02
 0.16222664206E+02 0.11898088304E+02 0.85902509898E+01 0.64213663810E+01 0.51009823560E+01
 0.42571792613E+01 0.38023413960E+01 0.36617090899E+01 0.38023508133E+01 0.42571879707E+01
 0.51009833839E+01 0.64213691851E+01 0.85902727907E+01 0.11898136632E+02 0.16222722824E+02
 0.21103510460E+02 0.35772553176E+02 0.40280690889E+02 0.42773267302E+02 0.42772775867E+02
 0.40280435354E+02 0.35773571004E+02 0.29988538389E+02 0.23703522759E+02 0.17659487463E+02
 0.12526202622E+02 0.87642605056E+01 0.64214407937E+01 0.50707942468E+01 0.42576990999E+01
 0.38828117052E+01 0.38819717175E+01 0.42567643686E+01 0.50714422580E+01 0.64222626737E+01
 0.87636588493E+01 0.12525544332E+02 0.17660301527E+02 0.23704392915E+02 0.29987835044E+02
 0.46890808631E+02 0.51514028023E+02 0.53188803554E+02 0.51514037816E+02 0.46890833463E+02
 0.40280813359E+02 0.32733284434E+02 0.25119012840E+02 0.18168332723E+02 0.12525911075E+02
 0.85907365618E+01 0.62736412216E+01 0.49871071514E+01 0.42719651086E+01 0.40460553189E+01
 0.42719540823E+01 0.49870971169E+01 0.62736440843E+01 0.85907508758E+01 0.12525922338E+02
 0.18168324425E+02 0.25118980933E+02 0.32733240907E+02 0.40280773859E+02 0.58697718808E+02
 0.62829423594E+02 0.62829536419E+02 0.58697488186E+02 0.51513780917E+02 0.42772896974E+02
 0.33703515608E+02 0.25119304232E+02 0.17659637704E+02 0.11897431250E+02 0.81085706657E+01
 0.60085865187E+01 0.48681596213E+01 0.43243508748E+01 0.43249619047E+01 0.48688550568E+01
 0.60081400755E+01 0.81079741783E+01 0.11897878048E+02 0.17660180420E+02 0.25118724034E+02
 0.33702699921E+02 0.42773189389E+02 0.51514621990E+02 0.69879702037E+02 0.72494233971E+02
 0.69879592635E+02 0.62829508371E+02 0.53188325469E+02 0.42772660445E+02 0.32732772232E+02
 0.23704256595E+02 0.16222711725E+02 0.10766319919E+02 0.74228789214E+01 0.56714134957E+01
 0.47436862855E+01 0.44429993353E+01 0.47436719775E+01 0.56714054417E+01 0.74228926689E+01
 0.10766345609E+02 0.16222722824E+02 0.23704243760E+02 0.32732762822E+02 0.42772703640E+02
 0.53188442386E+02 0.62829661481E+02 0.78188587920E+02 0.78188743552E+02 0.72494376524E+02
 0.62829766790E+02 0.51514114320E+02 0.40280226586E+02 0.29988035446E+02 0.21104284114E+02
 0.14109985228E+02 0.93544761541E+01 0.66679631666E+01 0.52996408122E+01 0.46490621612E+01
 0.46486909069E+01 0.52991754293E+01 0.66681627103E+01 0.93548663446E+01 0.14109816433E+02
 0.21103939646E+02 0.29988299347E+02 0.40280860156E+02 0.51514278794E+02 0.62829346333E+02
 0.72493926474E+02 0.78188587920E+02 0.72493926474E+02 0.62829346333E+02 0.51514278794E+02
 0.40280860156E+02 0.29988299347E+02 0.21103939646E+02 0.14109816433E+02 0.93548663446E+01
 0.66681627103E+01 0.52991754293E+01 0.46486909069E+01 0.46490621612E+01 0.52996408122E+01
 0.66679631666E+01 0.93544761541E+01 0.14109985228E+02 0.21104284114E+02 0.29988035446E+02
 0.40280226586E+02 0.51514114320E+02 0.62829766790E+02 0.72494376524E+02 0.78188743552E+02
 0.72493759193E+02 0.64986852601E+02 0.54799639576E+02 0.43916083463E+02 0.33548186803E+02
 0.24297755641E+02 0.16642153648E+02 0.11034467006E+02 0.75751273296E+01 0.57631720153E+01
 0.48124868546E+01 0.45032673368E+01 0.48123703465E+01 0.57631866339E+01 0.75753499866E+01
 0.11034674462E+02 0.16642116099E+02 0.24297418064E+02 0.33547639022E+02 0.43915621688E+02
 0.54799725454E+02 0.64987593764E+02 0.72494527208E+02 0.75288461362E+02 0.62829207195E+02
 0.54799789921E+02 0.45208844498E+02 0.35470461357E+02 0.26410401886E+02 0.18586275703E+02
 0.12510350468E+02 0.84661359308E+01 0.62092804697E+01 0.50093620880E+01 0.44348762378E+01
 0.44343219951E+01 0.50087287028E+01 0.62097272898E+01 0.84668332018E+01 0.12510106752E+02
 0.18585665275E+02 0.26410451816E+02 0.35470728659E+02 0.45208564497E+02 0.54799513977E+02
 0.62829595174E+02 0.67501895294E+02 0.67501533340E+02 0.51514010161E+02 0.43916266980E+02
 0.35471041413E+02 0.27148690376E+02 0.19636193750E+02 0.13515064132E+02 0.91836382023E+01
 0.65996514893E+01 0.51982420156E+01 0.44235530640E+01 0.41769145229E+01 0.44236685067E+01
 0.51982198897E+01 0.65994600471E+01 0.91835435333E+01 0.13515199186E+02 0.19636411596E+02
 0.27148855583E+02 0.35471127175E+02 0.43916166656E+02 0.51513646701E+02 0.56942306937E+02
 0.58931329375E+02 0.56942682595E+02 0.40280432519E+02 0.33547882911E+02 0.26410964498E+02
 0.19636933719E+02 0.13870089654E+02 0.95817407758E+01 0.68708329948E+01 0.53451613978E+01
 0.44423479190E+01 0.40215399690E+01 0.40223535756E+01 0.44432153091E+01 0.53444210830E+01
 0.68699343481E+01 0.95823885774E+01 0.13870999076E+02 0.19636447639E+02 0.26410213746E+02
 0.33548379697E+02 0.40281102597E+02 0.45665225957E+02 0.48699581695E+02 0.48700149219E+02
 0.45665727790E+02 0.29988170786E+02 0.24297056423E+02 0.18586099074E+02 0.13515600063E+02
 0.95820941897E+01 0.69670332259E+01 0.54231570844E+01 0.44663879008E+01 0.39424949201E+01
 0.37794176445E+01 0.39425149078E+01 0.44664299577E+01 0.54232311428E+01 0.69671104571E+01
 0.95820808770E+01 0.13515434876E+02 0.18585882436E+02 0.24296984884E+02 0.29988333007E+02
 0.34911101069E+02 0.38291743715E+02 0.39501249568E+02 0.38291535252E+02 0.34910817023E+02
 0.21104378222E+02 0.16641803118E+02 0.12509800110E+02 0.91835899310E+01 0.68708564810E+01
 0.54228392464E+01 0.44751906952E+01 0.39112233300E+01 0.36579060173E+01 0.36571580286E+01
 0.39104305688E+01 0.44758613339E+01 0.54236136192E+01 0.68702287531E+01 0.91828525386E+01
 0.12510431387E+02 0.16642553220E+02 0.21103767407E+02 0.25285102866E+02 0.28550737804E+02
 0.30348294942E+02 0.30347785749E+02 0.28550375372E+02 0.25285928564E+02 0.14110341491E+02
 0.11034700578E+02 0.84659562230E+01 0.65996348043E+01 0.53452157591E+01 0.44659050412E+01
 0.39105139767E+01 0.36210654060E+01 0.35333001024E+01 0.36209670347E+01 0.39103851591E+01
 0.44658072712E+01 0.53452013718E+01 0.65997690530E+01 0.84662369778E+01 0.11034949299E+02
 0.14110312356E+02 0.17285395943E+02 0.20060345405E+02 0.21958670138E+02 0.22634106535E+02
 0.21959001219E+02 0.20060834306E+02 0.17285757979E+02 0.93549464660E+01 0.75753724462E+01
 0.62093614151E+01 0.51984600948E+01 0.44428556776E+01 0.39426885346E+01 0.36573992704E+01
 0.35327226694E+01 0.35330797174E+01 0.36577699016E+01 0.39423538912E+01 0.44424828092E+01
 0.51987863491E+01 0.62097720312E+01 0.75751581337E+01 0.93546722407E+01 0.11398310129E+02
 0.13401025274E+02 0.15003211550E+02 0.15894183721E+02 0.15894562137E+02 0.15003664888E+02
 0.13400826397E+02 0.11398036524E+02 0.66680145128E+01 0.57630989920E+01 0.50092136027E+01
 0.44234758410E+01 0.40218796697E+01 0.37800438389E+01 0.36575001625E+01 0.36208321606E+01
 0.36575595564E+01 0.37802216199E+01 0.40220474365E+01 0.44233974021E+01 0.50089263288E+01
 0.57629268571E+01 0.66681259370E+01 0.77530223452E+01 0.89281520920E+01 0.10002075246E+02
 0.10757972939E+02 0.11030355906E+02 0.10757950423E+02 0.10002019127E+02 0.89279994290E+01
 0.77527881914E+01 0.52992672444E+01 0.48124560232E+01 0.44346671684E+01 0.41765449956E+01
 0.40220382721E+01 0.39425223715E+01 0.39107718570E+01 0.39107686487E+01 0.39425163143E+01
 0.40220273613E+01 0.41765177446E+01 0.44346207595E+01 0.48124174489E+01 0.52992853752E+01
 0.58517562991E+01 0.64294170079E+01 0.69943775875E+01 0.74573427757E+01 0.77198580759E+01
 0.77198796999E+01 0.74573690361E+01 0.69943472887E+01 0.64293287930E+01 0.58516735343E+01
 0.46489066165E+01 0.45034897665E+01 0.44344437770E+01 0.44236555358E+01 0.44429633685E+01
 0.44659419580E+01 0.44754583129E+01 0.44658109852E+01 0.44427497308E+01 0.44235225410E+01
 0.44345414495E+01 0.45037305743E+01 0.46490246512E+01 0.48682387144E+01 0.51355950909E+01
 0.54078065366E+01 0.56383235774E+01 0.57935119603E+01 0.58487076854E+01 0.57934621544E+01
 0.56382960106E+01 0.54078993813E+01 0.51357950223E+01 0.48683580613E+01 0.46490250377E+01
 0.48124977092E+01 0.50089229136E+01 0.51985520140E+01 0.53448115968E+01 0.54233082138E+01
 0.54232241699E+01 0.53447416774E+01 0.51986691042E+01 0.50090172243E+01 0.48123699421E+01
 0.46488751121E+01 0.45481707766E+01 0.45189564199E+01 0.45479867114E+01 0.46076825356E+01
 0.46674589850E+01 0.47034260266E+01 0.47033245417E+01 0.46673519759E+01 0.46077743856E+01
 0.45481006032E+01 0.45189048071E+01 0.45481334598E+01 0.52994844492E+01 0.57630360452E+01
 0.62095831606E+01 0.65994610075E+01 0.68702710287E+01 0.69676590860E+01 0.68705750946E+01
 0.65997145586E+01 0.62095609828E+01 0.57628492916E+01 0.52993084799E+01 0.48681941548E+01
 0.45188662274E+01 0.42723682240E+01 0.41218788224E+01 0.40437357077E+01 0.40107389593E+01
 0.40023728260E+01 0.40109295150E+01 0.40438202413E+01 0.41217280451E+01 0.42721719014E+01
 0.45188138870E+01 0.48682861044E+01 0.66680893626E+01 0.75752636493E+01 0.84665807724E+01
 0.91832271966E+01 0.95821191909E+01 0.95820386207E+01 0.91831504668E+01 0.84666726380E+01
 0.75753670937E+01 0.66680570917E+01 0.58517129390E+01 0.51357269752E+01 0.45480829689E+01
 0.41218094261E+01 0.38486953273E+01 0.36967832133E+01 0.36313982168E+01 0.36312937405E+01
 0.36966720608E+01 0.38487955246E+01 0.41219338824E+01 0.45480027662E+01 0.51355854549E+01
 0.58517168943E+01 0.93548204763E+01 0.11034881946E+02 0.12510087041E+02 0.13515191197E+02
 0.13870884765E+02 0.13514942528E+02 0.12509892288E+02 0.11034957994E+02 0.93550753038E+01
 0.77531425459E+01 0.64292014710E+01 0.54078115185E+01 0.46079695558E+01 0.40437782993E+01
 0.36965175804E+01 0.35179504051E+01 0.34640918614E+01 0.35177923014E+01 0.36964045707E+01
 0.40438436595E+01 0.46081399052E+01 0.54079246648E+01 0.64291574969E+01 0.77529327320E+01
 0.14110141688E+02 0.16642423517E+02 0.18585654327E+02 0.19636549859E+02 0.19637031736E+02
 0.18586146559E+02 0.16641966995E+02 0.14109663246E+02 0.11398386467E+02 0.89284283502E+01
 0.69941319554E+01 0.56379838629E+01 0.46676525680E+01 0.40110158541E+01 0.36311060479E+01
 0.34636160719E+01 0.34641434162E+01 0.36316587991E+01 0.40105253280E+01 0.46670810239E+01
 0.56383976313E+01 0.69946434841E+01 0.89280326516E+01 0.11397960185E+02 0.21104131880E+02
 0.24297708158E+02 0.26410295296E+02 0.27148405447E+02 0.26410551105E+02 0.24297974196E+02
 0.21104105797E+02 0.17284896154E+02 0.13400818307E+02 0.10002438363E+02 0.74573561798E+01
 0.57930204970E+01 0.47033391553E+01 0.40028135090E+01 0.36313538400E+01 0.35173030057E+01
 0.36313848695E+01 0.40029276057E+01 0.47034200415E+01 0.57928812555E+01 0.74571012928E+01
 0.10002415976E+02 0.13401140125E+02 0.17285241624E+02 0.29987725028E+02 0.33547991833E+02
 0.35470907371E+02 0.35470368047E+02 0.33547676077E+02 0.29988730081E+02 0.25285831935E+02
 0.20060340413E+02 0.15002990065E+02 0.10758346169E+02 0.77202458566E+01 0.58483971687E+01
 0.47029890041E+01 0.40113020455E+01 0.36971032015E+01 0.36962266244E+01 0.40103833207E+01
 0.47037997162E+01 0.58493211031E+01 0.77195080142E+01 0.10757500834E+02 0.15003822404E+02
 0.20061358215E+02 0.25285199495E+02 0.40279813134E+02 0.43915834021E+02 0.45209303526E+02
 0.43916157051E+02 0.40280237224E+02 0.34910620950E+02 0.28550960687E+02 0.21958677218E+02
 0.15893836510E+02 0.11030491368E+02 0.77204288898E+01 0.57934655200E+01 0.46668870335E+01
 0.40438775049E+01 0.38492955686E+01 0.40438420433E+01 0.46668019449E+01 0.57933806282E+01
 0.77204483943E+01 0.11030657072E+02 0.15894068011E+02 0.21958830664E+02 0.28550916406E+02
 0.34910336985E+02 0.51513685669E+02 0.54799449021E+02 0.54800102847E+02 0.51514380400E+02
 0.45665224943E+02 0.38291433579E+02 0.30348319452E+02 0.22634057849E+02 0.15894053365E+02
 0.10757653211E+02 0.74577379265E+01 0.56385601216E+01 0.46073828582E+01 0.41214299810E+01
 0.41222568558E+01 0.46082702582E+01 0.56378125209E+01 0.74567960540E+01 0.10758252450E+02
 0.15894950215E+02 0.22633601520E+02 0.30347592850E+02 0.38291871936E+02 0.45665728803E+02
 0.62829631468E+02 0.64987047464E+02 0.62829450097E+02 0.56942713971E+02 0.48699924661E+02
 0.39501402486E+02 0.30348146781E+02 0.21959370792E+02 0.15003468515E+02 0.10001545851E+02
 0.69943854738E+01 0.54082830821E+01 0.45480287726E+01 0.42717761901E+01 0.45480866267E+01
 0.54083127295E+01 0.69943882889E+01 0.10001579582E+02 0.15003461883E+02 0.21959204073E+02
 0.30347915642E+02 0.39501362885E+02 0.48700153998E+02 0.56943019320E+02 0.72494651131E+02
 0.72494327800E+02 0.67501516338E+02 0.58931144697E+02 0.48700017270E+02 0.38291367913E+02
 0.28550546773E+02 0.20061414964E+02 0.13401187499E+02 0.89278114886E+01 0.64291589064E+01
 0.51360745942E+01 0.45191602395E+01 0.45186306608E+01 0.51354589283E+01 0.64295694909E+01
 0.89284856463E+01 0.13400968886E+02 0.20060800548E+02 0.28550562119E+02 0.38291713728E+02
 0.48699965744E+02 0.58931053645E+02 0.67501912296E+02 0.78189053315E+02 0.75288683966E+02
 0.67501555805E+02 0.56942669566E+02 0.45665580616E+02 0.34910333561E+02 0.25285422689E+02
 0.17285761635E+02 0.11398417103E+02 0.77529276921E+01 0.58514941485E+01 0.48683580033E+01
 0.45484033040E+01 0.48683580033E+01 0.58514941485E+01 0.77529276921E+01 0.11398417103E+02
 0.17285761635E+02 0.25285422689E+02 0.34910333561E+02 0.45665580616E+02 0.56942669566E+02
 0.67501555805E+02 0.75288683966E+02 0.69879702037E+02 0.62829661481E+02 0.53188442386E+02
 0.42772703640E+02 0.32732762822E+02 0.23704243760E+02 0.16222722824E+02 0.10766345609E+02
 0.74228926689E+01 0.56714054417E+01 0.47436719775E+01 0.44429993353E+01 0.47436862855E+01
 0.56714134957E+01 0.74228789214E+01 0.10766319919E+02 0.16222711725E+02 0.23704256595E+02
 0.32732772232E+02 0.42772660445E+02 0.53188325469E+02 0.62829508371E+02 0.69879592635E+02
 0.72494233971E+02 0.62829207195E+02 0.54799789921E+02 0.45208844498E+02 0.35470461357E+02
 0.26410401886E+02 0.18586275703E+02 0.12510350468E+02 0.84661359308E+01 0.62092804697E+01
 0.50093620880E+01 0.44348762378E+01 0.44343219951E+01 0.50087287028E+01 0.62097272898E+01
 0.84668332018E+01 0.12510106752E+02 0.18585665275E+02 0.26410451816E+02 0.35470728659E+02
 0.45208564497E+02 0.54799513977E+02 0.62829595174E+02 0.67501895294E+02 0.67501533340E+02
 0.53188076832E+02 0.45208636457E+02 0.36424230977E+02 0.27845569046E+02 0.20140251827E+02
 0.13858993826E+02 0.93931777702E+01 0.67152523574E+01 0.52718337102E+01 0.44768417077E+01
 0.42229413118E+01 0.44768606002E+01 0.52718482892E+01 0.67152441614E+01 0.93931575945E+01
 0.13858994032E+02 0.20140290901E+02 0.27845622216E+02 0.36424249655E+02 0.45208585874E+02
 0.53187980315E+02 0.58931148691E+02 0.61043088246E+02 0.58931224560E+02 0.42772643062E+02
 0.35470362576E+02 0.27845875868E+02 0.20680812205E+02 0.14589026277E+02 0.10028540327E+02
 0.71181931403E+01 0.54905815988E+01 0.45420410847E+01 0.40966838970E+01 0.40974260691E+01
 0.45428592805E+01 0.54899354007E+01 0.71172881092E+01 0.10028949548E+02 0.14589831049E+02
 0.20680654893E+02 0.27845553197E+02 0.35470876160E+02 0.42772939381E+02 0.48699576519E+02
 0.52073654699E+02 0.52074351778E+02 0.48700443482E+02 0.32732762822E+02 0.26410134983E+02
 0.20140617381E+02 0.14589808044E+02 0.10254466090E+02 0.73409278103E+01 0.56325540047E+01
 0.46037883813E+01 0.40344734011E+01 0.38563466064E+01 0.40344763131E+01 0.46037925090E+01
 0.56325561142E+01 0.73409263256E+01 0.10254463951E+02 0.14589813599E+02 0.20140643464E+02
 0.26410186340E+02 0.32732834361E+02 0.38292089534E+02 0.42166596714E+02 0.43564633534E+02
 0.42166551188E+02 0.38292017758E+02 0.23704331627E+02 0.18585733550E+02 0.13858659714E+02
 0.10029181261E+02 0.73417368664E+01 0.56816404463E+01 0.46382088553E+01 0.40096790004E+01
 0.37252190240E+01 0.37244402626E+01 0.40088647907E+01 0.46389718332E+01 0.56825854830E+01
 0.73411903400E+01 0.10028293419E+02 0.13858942322E+02 0.18586178169E+02 0.23703772775E+02
 0.28550419447E+02 0.32386134845E+02 0.34519861067E+02 0.34519032266E+02 0.32385085754E+02
 0.28550725316E+02 0.16223144346E+02 0.12510142427E+02 0.93923906935E+01 0.71178863179E+01
 0.56329755266E+01 0.46385429672E+01 0.40025506358E+01 0.36685854007E+01 0.35669968861E+01
 0.36685748581E+01 0.40025431297E+01 0.46385495049E+01 0.56329903999E+01 0.71178870568E+01
 0.93923619820E+01 0.12510086831E+02 0.16223087402E+02 0.20060937516E+02 0.23437487752E+02
 0.25766050909E+02 0.26598821460E+02 0.25766046072E+02 0.23437494536E+02 0.20060971463E+02
 0.10766823740E+02 0.84665758578E+01 0.67150204713E+01 0.54900428903E+01 0.46035453231E+01
 0.40095767746E+01 0.36683535146E+01 0.35186983495E+01 0.35192101935E+01 0.36688457653E+01
 0.40089766756E+01 0.46028818447E+01 0.54904958373E+01 0.67157307520E+01 0.84664144690E+01
 0.10766466543E+02 0.13401199033E+02 0.15982127540E+02 0.18052694353E+02 0.19208228982E+02
 0.19208826779E+02 0.18053487798E+02 0.15982010621E+02 0.13400907915E+02 0.74228926689E+01
 0.62096954065E+01 0.52721992650E+01 0.45421410112E+01 0.40344734011E+01 0.37250918081E+01
 0.35665753642E+01 0.35187714115E+01 0.35665747249E+01 0.37250907005E+01 0.40344774586E+01
 0.45421571872E+01 0.52722352146E+01 0.62097428784E+01 0.74229302607E+01 0.89281150933E+01
 0.10569097605E+02 0.12070168288E+02 0.13127831782E+02 0.13509372377E+02 0.13127872275E+02
 0.12070222348E+02 0.10569129846E+02 0.89281078353E+01 0.56711025464E+01 0.50092106973E+01
 0.44768983580E+01 0.40969340691E+01 0.38567649004E+01 0.37248310247E+01 0.36686315084E+01
 0.36685572289E+01 0.37248271544E+01 0.38570234324E+01 0.40971509023E+01 0.44767400320E+01
 0.50088865476E+01 0.56710025903E+01 0.64294480057E+01 0.72843880546E+01 0.81492327454E+01
 0.88664023538E+01 0.92748230653E+01 0.92746859694E+01 0.88661638995E+01 0.81490955187E+01
 0.72842832635E+01 0.64293419255E+01 0.47436993820E+01 0.44346681969E+01 0.42225483526E+01
 0.40971192468E+01 0.40345037176E+01 0.40091989026E+01 0.40029372471E+01 0.40092085618E+01
 0.40345048631E+01 0.40970942520E+01 0.42225029443E+01 0.44346304312E+01 0.47436936128E+01
 0.51356606945E+01 0.55696074343E+01 0.59937689202E+01 0.63685412850E+01 0.66330041574E+01
 0.67289538090E+01 0.66330086899E+01 0.63685345013E+01 0.59937388160E+01 0.55695621505E+01
 0.51356298434E+01 0.44433103966E+01 0.44345948522E+01 0.44767957840E+01 0.45424876420E+01
 0.46033823810E+01 0.46387025375E+01 0.46384846887E+01 0.46030489146E+01 0.45424288993E+01
 0.44768614985E+01 0.44345656150E+01 0.44433849385E+01 0.45190100622E+01 0.46567762326E+01
 0.48318621880E+01 0.50074838378E+01 0.51468120586E+01 0.52229034170E+01 0.52227564109E+01
 0.51467117997E+01 0.50077806719E+01 0.48322007205E+01 0.46567039946E+01 0.45187367597E+01
 0.47436862855E+01 0.50090317614E+01 0.52722138440E+01 0.54901472053E+01 0.56325561142E+01
 0.56823463888E+01 0.56325688779E+01 0.54901689334E+01 0.52722352146E+01 0.50090382155E+01
 0.47436662084E+01 0.45188502283E+01 0.43624033131E+01 0.42793863452E+01 0.42548003124E+01
 0.42633657406E+01 0.42801120710E+01 0.42877196158E+01 0.42800995180E+01 0.42633568342E+01
 0.42548128956E+01 0.42794263025E+01 0.43624562038E+01 0.45188943066E+01 0.56711448493E+01
 0.62095416503E+01 0.67152665627E+01 0.71175725302E+01 0.73413788685E+01 0.73415468533E+01
 0.71179094581E+01 0.67154764645E+01 0.62095135812E+01 0.56709683414E+01 0.51356830958E+01
 0.46566890151E+01 0.42792689262E+01 0.40166036191E+01 0.38554059378E+01 0.37696384158E+01
 0.37341988079E+01 0.37342457135E+01 0.37696730306E+01 0.38552952669E+01 0.40164199697E+01
 0.42791951523E+01 0.46567912121E+01 0.51358812778E+01 0.74229675087E+01 0.84666251609E+01
 0.93927034525E+01 0.10028642726E+02 0.10254552538E+02 0.10028627531E+02 0.93926949166E+01
 0.84666463551E+01 0.74230188480E+01 0.64293913554E+01 0.55695462515E+01 0.48319270042E+01
 0.42548888997E+01 0.38553835365E+01 0.36117278056E+01 0.34868168160E+01 0.34492000394E+01
 0.34868098823E+01 0.36117236526E+01 0.38553878669E+01 0.42548928348E+01 0.48319130911E+01
 0.55695009677E+01 0.64293298215E+01 0.10766736434E+02 0.12510485062E+02 0.13858823762E+02
 0.14589353956E+02 0.14589508925E+02 0.13858778480E+02 0.12509916561E+02 0.10766528159E+02
 0.89284922590E+01 0.72846149747E+01 0.59935986504E+01 0.50073783841E+01 0.42636310281E+01
 0.37698310870E+01 0.34866465462E+01 0.33621881287E+01 0.33625291509E+01 0.34869769744E+01
 0.37694886731E+01 0.42633750117E+01 0.50078737941E+01 0.59939797745E+01 0.72840563434E+01
 0.89278121339E+01 0.16222711725E+02 0.18586263509E+02 0.20140656456E+02 0.20680571522E+02
 0.20140643464E+02 0.18586234250E+02 0.16222665880E+02 0.13400576954E+02 0.10569097605E+02
 0.81496795888E+01 0.63685138805E+01 0.51463570493E+01 0.42801120710E+01 0.37346114023E+01
 0.34491114521E+01 0.33619686880E+01 0.34491230775E+01 0.37346205323E+01 0.42801062162E+01
 0.51463364000E+01 0.63684968493E+01 0.81496846715E+01 0.10569129846E+02 0.13400626391E+02
 0.23703655458E+02 0.26410598667E+02 0.27845977108E+02 0.27845505128E+02 0.26410306392E+02
 0.23704461779E+02 0.20061292409E+02 0.15981540762E+02 0.12069606500E+02 0.88667005956E+01
 0.66333590496E+01 0.52224837087E+01 0.42872697060E+01 0.37345782043E+01 0.34871647745E+01
 0.34864518124E+01 0.37338754470E+01 0.42880036267E+01 0.52231738973E+01 0.66325274454E+01
 0.88658581067E+01 0.12070395363E+02 0.15982597400E+02 0.20060889157E+02 0.32732220536E+02
 0.35470520619E+02 0.36424435797E+02 0.35470569338E+02 0.32732282664E+02 0.28550753559E+02
 0.23438460970E+02 0.18052926239E+02 0.13127280086E+02 0.92747664150E+01 0.67295329096E+01
 0.52228212271E+01 0.42795478219E+01 0.37696506293E+01 0.36123639360E+01 0.37696589429E+01
 0.42795545202E+01 0.52228190052E+01 0.67295298097E+01 0.92747773147E+01 0.13127311745E+02
 0.18052960321E+02 0.23438467754E+02 0.28550717689E+02 0.42772529113E+02 0.45208394961E+02
 0.45208963451E+02 0.42773010136E+02 0.38291237013E+02 0.32385423156E+02 0.25766428487E+02
 0.19208838445E+02 0.13509201696E+02 0.92743650425E+01 0.66333862671E+01 0.51471541932E+01
 0.42630742746E+01 0.38549400910E+01 0.38557654442E+01 0.42639228588E+01 0.51463490158E+01
 0.66325047603E+01 0.92751548920E+01 0.13510185768E+02 0.19208198770E+02 0.25765430048E+02