   1   1   0   0
  0.1301975E+02  0.2640620E-09  0.2640620E-09  0.2640620E-09  0.5000000E-15
  1.000000000000000E-004
  CAR 
 unknown system                          
     38.91811868      2.05392741  301     12.07840890      1.00000000
      2.054  0.0000E+00  0.0000E+00
      2.177  0.0000E+00  0.0000E+00
      2.300  0.0000E+00  0.0000E+00
      2.423 -0.6210E-31 -0.7631E-32
      2.545 -0.8873E-27 -0.1090E-27
      2.668 -0.5920E-23 -0.7275E-24
      2.791 -0.1842E-19 -0.2264E-20
      2.914 -0.2584E-16 -0.3178E-17
      3.037 -0.1725E-13 -0.2123E-14
      3.160 -0.5305E-11 -0.6540E-12
      3.283 -0.7465E-09 -0.9239E-10
      3.406 -0.4737E-07 -0.5914E-08
      3.528 -0.1317E-05 -0.1677E-06
      3.651 -0.1489E-04 -0.1997E-05
      3.774 -0.5125E-04 -0.8295E-05
      3.897  0.9601E-04  0.3503E-05
      4.020  0.7075E-03  0.9044E-04
      4.143  0.8926E-03  0.2001E-03
      4.266  0.4068E-03  0.2501E-03
      4.389  0.1449E-02  0.4281E-03
      4.512  0.2968E-02  0.7928E-03
      4.634  0.1886E-02  0.1024E-02
      4.757  0.1517E-02  0.1211E-02
      4.880  0.2787E-02  0.1553E-02
      5.003  0.2123E-02  0.1814E-02
      5.126  0.2354E-02  0.2103E-02
      5.249  0.3479E-02  0.2531E-02
      5.372  0.2862E-02  0.2883E-02
      5.495  0.5707E-02  0.3584E-02
      5.617  0.9658E-02  0.4771E-02
      5.740  0.1167E-01  0.6205E-02
      5.863  0.2021E-01  0.8688E-02
      5.986  0.3329E-01  0.1278E-01
      6.109  0.4324E-01  0.1809E-01
      6.232  0.5052E-01  0.2430E-01
      6.355  0.6127E-01  0.3183E-01
      6.478  0.7186E-01  0.4066E-01
      6.601  0.7083E-01  0.4936E-01
      6.723  0.6263E-01  0.5706E-01
      6.846  0.5772E-01  0.6415E-01
      6.969  0.5519E-01  0.7093E-01
      7.092  0.5030E-01  0.7711E-01
      7.215  0.3959E-01  0.8198E-01
      7.338  0.3040E-01  0.8572E-01
      7.461  0.4181E-01  0.9085E-01
      7.584  0.5866E-01  0.9806E-01
      7.706  0.4980E-01  0.1042E+00
      7.829  0.3617E-01  0.1086E+00
      7.952  0.4122E-01  0.1137E+00
      8.075  0.4448E-01  0.1192E+00
      8.198  0.4540E-01  0.1247E+00
      8.321  0.4825E-01  0.1307E+00
      8.444  0.4879E-01  0.1367E+00
      8.567  0.5765E-01  0.1437E+00
      8.689  0.6455E-01  0.1517E+00
      8.812  0.6397E-01  0.1595E+00
      8.935  0.7342E-01  0.1686E+00
      9.058  0.8157E-01  0.1786E+00
      9.181  0.7457E-01  0.1877E+00
      9.304  0.5969E-01  0.1951E+00
      9.427  0.4668E-01  0.2008E+00
      9.550  0.4488E-01  0.2063E+00
      9.673  0.5327E-01  0.2129E+00
      9.795  0.4939E-01  0.2189E+00
      9.918  0.3344E-01  0.2231E+00
     10.041  0.3129E-01  0.2269E+00
     10.164  0.4813E-01  0.2328E+00
     10.287  0.6656E-01  0.2410E+00
     10.410  0.6817E-01  0.2494E+00
     10.533  0.5497E-01  0.2561E+00
     10.656  0.3817E-01  0.2608E+00
     10.778  0.3655E-01  0.2653E+00
     10.901  0.5160E-01  0.2716E+00
     11.024  0.5857E-01  0.2788E+00
     11.147  0.4349E-01  0.2842E+00
     11.270  0.2786E-01  0.2876E+00
     11.393  0.3810E-01  0.2923E+00
     11.516  0.5598E-01  0.2992E+00
     11.639  0.5089E-01  0.3054E+00
     11.761  0.4335E-01  0.3107E+00
     11.884  0.5875E-01  0.3180E+00
     12.007  0.8045E-01  0.3279E+00
     12.130  0.7152E-01  0.3366E+00
     12.253  0.4781E-01  0.3425E+00
     12.376  0.4080E-01  0.3475E+00
     12.499  0.2808E-01  0.3510E+00
     12.622  0.7773E-02  0.3519E+00
     12.745  0.1610E-02  0.3521E+00
     12.867  0.1490E-02  0.3523E+00
     12.990  0.1186E-03  0.3523E+00
     13.113  0.3855E-03  0.3524E+00
     13.236  0.2734E-02  0.3527E+00
     13.359  0.8444E-02  0.3538E+00
     13.482  0.1673E-01  0.3558E+00
     13.605  0.1778E-01  0.3580E+00
     13.728  0.1247E-01  0.3595E+00
     13.850  0.5028E-02  0.3601E+00
     13.973  0.2458E-04  0.3601E+00
     14.096  0.3834E-02  0.3606E+00
     14.219  0.1114E-01  0.3620E+00
     14.342  0.8967E-02  0.3631E+00
     14.465  0.3841E-02  0.3636E+00
     14.588  0.6308E-02  0.3643E+00
     14.711  0.8778E-02  0.3654E+00
     14.834  0.6236E-02  0.3662E+00
     14.956  0.4777E-02  0.3668E+00
     15.079  0.8929E-02  0.3679E+00
     15.202  0.1049E-01  0.3692E+00
     15.325  0.7836E-02  0.3701E+00
     15.448  0.6824E-02  0.3710E+00
     15.571  0.8266E-02  0.3720E+00
     15.694  0.7810E-02  0.3729E+00
     15.817  0.6595E-02  0.3737E+00
     15.939  0.8490E-02  0.3748E+00
     16.062  0.8657E-02  0.3758E+00
     16.185  0.6687E-02  0.3767E+00
     16.308  0.1180E-01  0.3781E+00
     16.431  0.1433E-01  0.3799E+00
     16.554  0.5545E-02  0.3806E+00
     16.677 -0.7974E-03  0.3805E+00
     16.800 -0.4157E-04  0.3805E+00
     16.922  0.6398E-02  0.3812E+00
     17.045  0.1152E-01  0.3827E+00
     17.168  0.6866E-02  0.3835E+00
     17.291  0.4815E-02  0.3841E+00
     17.414  0.1038E-01  0.3854E+00
     17.537  0.1002E-01  0.3866E+00
     17.660  0.6879E-02  0.3874E+00
     17.783  0.6604E-02  0.3883E+00
     17.906  0.5156E-02  0.3889E+00
     18.028  0.3784E-02  0.3894E+00
     18.151  0.2541E-02  0.3897E+00
     18.274  0.3743E-02  0.3901E+00
     18.397  0.9856E-02  0.3913E+00
     18.520  0.1031E-01  0.3926E+00
     18.643  0.5691E-02  0.3933E+00
     18.766  0.5625E-02  0.3940E+00
     18.889  0.3962E-02  0.3945E+00
     19.011  0.1480E-02  0.3947E+00
     19.134  0.2452E-02  0.3950E+00
     19.257  0.1941E-02  0.3952E+00
     19.380  0.1381E-02  0.3954E+00
     19.503  0.6296E-02  0.3962E+00
     19.626  0.1076E-01  0.3975E+00
     19.749  0.7154E-02  0.3984E+00
     19.872  0.1307E-02  0.3985E+00
     19.995 -0.5066E-03  0.3985E+00
     20.117 -0.7360E-03  0.3984E+00
     20.240 -0.8607E-03  0.3983E+00
     20.363  0.5011E-02  0.3989E+00
     20.486  0.1902E-01  0.4012E+00
     20.609  0.2516E-01  0.4043E+00
     20.732  0.1693E-01  0.4064E+00
     20.855  0.6253E-02  0.4071E+00
     20.978  0.4363E-02  0.4077E+00
     21.100  0.9487E-02  0.4089E+00
     21.223  0.1460E-01  0.4106E+00
     21.346  0.1507E-01  0.4125E+00
     21.469  0.9713E-02  0.4137E+00
     21.592  0.8965E-02  0.4148E+00
     21.715  0.1111E-01  0.4162E+00
     21.838  0.9891E-02  0.4174E+00
     21.961  0.8071E-02  0.4184E+00
     22.083  0.4458E-02  0.4189E+00
     22.206  0.1957E-02  0.4192E+00
     22.329  0.5041E-02  0.4198E+00
     22.452  0.1013E-01  0.4210E+00
     22.575  0.1475E-01  0.4228E+00
     22.698  0.1346E-01  0.4245E+00
     22.821  0.1135E-01  0.4259E+00
     22.944  0.1022E-01  0.4271E+00
     23.067  0.6731E-02  0.4280E+00
     23.189  0.7363E-02  0.4289E+00
     23.312  0.6386E-02  0.4297E+00
     23.435  0.2840E-02  0.4300E+00
     23.558  0.5297E-02  0.4307E+00
     23.681  0.9560E-02  0.4318E+00
     23.804  0.9644E-02  0.4330E+00
     23.927  0.8435E-02  0.4340E+00
     24.050  0.8697E-02  0.4351E+00
     24.172  0.1332E-01  0.4368E+00
     24.295  0.1614E-01  0.4387E+00
     24.418  0.1936E-01  0.4411E+00
     24.541  0.2311E-01  0.4440E+00
     24.664  0.2110E-01  0.4465E+00
     24.787  0.2171E-01  0.4492E+00
     24.910  0.1921E-01  0.4516E+00
     25.033  0.1342E-01  0.4532E+00
     25.155  0.1238E-01  0.4547E+00
     25.278  0.1371E-01  0.4564E+00
     25.401  0.1458E-01  0.4582E+00
     25.524  0.1245E-01  0.4598E+00
     25.647  0.9356E-02  0.4609E+00
     25.770  0.7038E-02  0.4618E+00
     25.893  0.1011E-01  0.4630E+00
     26.016  0.1544E-01  0.4649E+00
     26.139  0.2220E-01  0.4676E+00
     26.261  0.2724E-01  0.4710E+00
     26.384  0.2597E-01  0.4742E+00
     26.507  0.1966E-01  0.4766E+00
     26.630  0.1237E-01  0.4781E+00
     26.753  0.1142E-01  0.4795E+00
     26.876  0.1043E-01  0.4808E+00
     26.999  0.1273E-01  0.4824E+00
     27.122  0.2645E-01  0.4856E+00
     27.244  0.3268E-01  0.4896E+00
     27.367  0.2206E-01  0.4923E+00
     27.490  0.1087E-01  0.4937E+00
     27.613  0.9152E-02  0.4948E+00
     27.736  0.1412E-01  0.4965E+00
     27.859  0.1674E-01  0.4986E+00
     27.982  0.1254E-01  0.5001E+00
     28.105  0.7952E-02  0.5011E+00
     28.228  0.7707E-02  0.5021E+00
     28.350  0.1839E-01  0.5043E+00
     28.473  0.2875E-01  0.5078E+00
     28.596  0.2274E-01  0.5106E+00
     28.719  0.1671E-01  0.5127E+00
     28.842  0.2838E-01  0.5162E+00
     28.965  0.4141E-01  0.5213E+00
     29.088  0.3768E-01  0.5259E+00
     29.211  0.2392E-01  0.5288E+00
     29.333  0.1003E-01  0.5301E+00
     29.456  0.5461E-02  0.5307E+00
     29.579  0.1473E-01  0.5325E+00
     29.702  0.3126E-01  0.5364E+00
     29.825  0.3960E-01  0.5413E+00
     29.948  0.2944E-01  0.5449E+00
     30.071  0.1218E-01  0.5464E+00
     30.194  0.7008E-02  0.5472E+00
     30.316  0.7462E-02  0.5481E+00
     30.439  0.1264E-01  0.5497E+00
     30.562  0.2510E-01  0.5528E+00
     30.685  0.2555E-01  0.5559E+00
     30.808  0.2271E-01  0.5587E+00
     30.931  0.2426E-01  0.5617E+00
     31.054  0.1366E-01  0.5634E+00
     31.177  0.8292E-02  0.5644E+00
     31.300  0.1651E-01  0.5664E+00
     31.422  0.1726E-01  0.5685E+00
     31.545  0.1718E-01  0.5707E+00
     31.668  0.2497E-01  0.5737E+00
     31.791  0.2294E-01  0.5765E+00
     31.914  0.9031E-02  0.5777E+00
     32.037  0.3924E-03  0.5777E+00
     32.160  0.1133E-02  0.5778E+00
     32.283  0.4041E-02  0.5783E+00
     32.405  0.4031E-02  0.5788E+00
     32.528  0.4785E-02  0.5794E+00
     32.651  0.1212E-01  0.5809E+00
     32.774  0.1629E-01  0.5829E+00
     32.897  0.9771E-02  0.5841E+00
     33.020  0.3312E-02  0.5845E+00
     33.143  0.3413E-03  0.5846E+00
     33.266  0.1808E-02  0.5848E+00
     33.388  0.9416E-02  0.5859E+00
     33.511  0.1222E-01  0.5874E+00
     33.634  0.9920E-02  0.5887E+00
     33.757  0.9579E-02  0.5898E+00
     33.880  0.7822E-02  0.5908E+00
     34.003  0.6420E-02  0.5916E+00
     34.126  0.4387E-02  0.5921E+00
     34.249  0.2908E-02  0.5925E+00
     34.372  0.3252E-02  0.5929E+00
     34.494  0.5847E-02  0.5936E+00
     34.617  0.7823E-02  0.5946E+00
     34.740  0.9539E-02  0.5957E+00
     34.863  0.1011E-01  0.5970E+00
     34.986  0.6578E-02  0.5978E+00
     35.109  0.1506E-02  0.5980E+00
     35.232 -0.5878E-03  0.5979E+00
     35.355  0.2486E-03  0.5979E+00
     35.477  0.3801E-02  0.5984E+00
     35.600  0.6000E-02  0.5991E+00
     35.723  0.2993E-02  0.5995E+00
     35.846  0.1006E-03  0.5995E+00
     35.969 -0.2419E-03  0.5995E+00
     36.092 -0.7466E-04  0.5995E+00
     36.215 -0.5280E-04  0.5995E+00
     36.338  0.2178E-03  0.5995E+00
     36.461  0.8854E-03  0.5996E+00
     36.583  0.8799E-03  0.5997E+00
     36.706  0.2220E-03  0.5997E+00
     36.829  0.3599E-03  0.5998E+00
     36.952  0.9912E-03  0.5999E+00
     37.075  0.7273E-03  0.6000E+00
     37.198  0.9736E-04  0.6000E+00
     37.321 -0.5121E-04  0.6000E+00
     37.444 -0.1489E-04  0.6000E+00
     37.566 -0.1317E-05  0.6000E+00
     37.689 -0.4737E-07  0.6000E+00
     37.812 -0.7465E-09  0.6000E+00
     37.935 -0.5305E-11  0.6000E+00
     38.058 -0.1725E-13  0.6000E+00
     38.181 -0.2588E-16  0.6000E+00
     38.304  0.0000E+00  0.6000E+00
     38.427  0.0000E+00  0.6000E+00
     38.549  0.0000E+00  0.6000E+00
     38.672  0.0000E+00  0.6000E+00
     38.795  0.0000E+00  0.6000E+00
     38.918  0.0000E+00  0.6000E+00
