    1    1   30    1
  0.1301975E+02  0.2640620E-09  0.2640620E-09  0.2640620E-09  0.5000000E-15
  1.000000000000000E-004
  CAR 
 unknown system                          
     10     60      9
 
  0.6250000E-01  0.6250000E-01  0.6250000E-01  0.3906250E-02
    1        4.053927
    2        8.534063
    3        8.657134
    4        8.657134
    5       10.544300
    6       10.544300
    7       29.424498
    8       33.780087
    9       34.936315
 
  0.1875000E+00  0.6250000E-01  0.6250000E-01  0.1171875E-01
    1        4.835612
    2        8.236807
    3        8.912022
    4        8.943346
    5       10.257394
    6       10.681518
    7       30.228103
    8       31.273729
    9       34.872049
 
  0.3125000E+00  0.6250000E-01  0.6250000E-01  0.1171875E-01
    1        5.930661
    2        8.538746
    3        8.950376
    4        9.001611
    5       10.544561
    6       11.352680
    7       26.964467
    8       30.505131
    9       35.494395
 
  0.4375000E+00  0.6250000E-01  0.6250000E-01  0.1171875E-01
    1        5.916335
    2        8.567598
    3        8.711107
    4       10.549050
    5       11.516662
    6       12.724592
    7       22.492217
    8       29.213942
    9       33.950877
 
 -0.4375000E+00  0.6250000E-01  0.6250000E-01  0.1171875E-01
    1        5.818432
    2        8.431028
    3        8.634489
    4       11.147281
    5       12.062282
    6       13.688744
    7       20.543707
    8       28.793612
    9       33.924923
 
 -0.3125000E+00  0.6250000E-01  0.6250000E-01  0.1171875E-01
    1        5.971976
    2        8.631353
    3        8.846081
    4        9.771199
    5       11.682690
    6       11.830970
    7       23.916628
    8       29.648130
    9       34.706193
 
 -0.1875000E+00  0.6250000E-01  0.6250000E-01  0.1171875E-01
    1        5.665382
    2        8.210068
    3        8.990692
    4        9.066452
    5       10.461010
    6       10.925080
    7       28.429586
    8       30.833842
    9       35.558252
 
 -0.6250000E-01  0.6250000E-01  0.6250000E-01  0.1171875E-01
    1        4.462007
    2        8.311664
    3        8.839299
    4        8.846721
    5       10.298001
    6       10.658451
    7       29.932582
    8       32.591566
    9       34.845118
 
  0.1875000E+00  0.1875000E+00  0.6250000E-01  0.1171875E-01
    1        5.201543
    2        7.890670
    3        9.178773
    4        9.215749
    5        9.972432
    6       10.873134
    7       30.775265
    8       31.572845
    9       34.189528
 
  0.3125000E+00  0.1875000E+00  0.6250000E-01  0.2343750E-01
    1        6.267670
    2        7.533469
    3        8.915077
    4        9.671109
    5       10.433763
    6       11.512913
    7       28.893195
    8       30.837489
    9       33.411799
 
  0.4375000E+00  0.1875000E+00  0.6250000E-01  0.2343750E-01
    1        6.482353
    2        8.148633
    3        8.641452
    4        9.489330
    5       11.627839
    6       13.405215
    7       24.218106
    8       29.828783
    9       31.678891
 
 -0.4375000E+00  0.1875000E+00  0.6250000E-01  0.2343750E-01
    1        6.382343
    2        7.941689
    3        9.203365
    4        9.629708
    5       11.973420
    6       15.958223
    7       20.484280
    8       29.065736
    9       31.250877
 
 -0.3125000E+00  0.1875000E+00  0.6250000E-01  0.2343750E-01
    1        6.539202
    2        8.122237
    3        9.047113
    4        9.389849
    5       11.368864
    6       14.557538
    7       22.799756
    8       28.974882
    9       31.538321
 
 -0.1875000E+00  0.1875000E+00  0.6250000E-01  0.2343750E-01
    1        6.638019
    2        7.796608
    3        8.664297
    4        9.609011
    5       10.239860
    6       12.376443
    7       27.391535
    8       29.636726
    9       33.393328
 
 -0.6250000E-01  0.1875000E+00  0.6250000E-01  0.2343750E-01
    1        5.509499
    2        7.944617
    3        9.055078
    4        9.210925
    5       10.096537
    6       11.001166
    7       29.903354
    8       30.861564
    9       34.471227
 
  0.3125000E+00  0.3125000E+00  0.6250000E-01  0.1171875E-01
    1        6.382346
    2        6.868663
    3        9.733684
    4       10.386428
    5       11.091583
    6       11.491657
    7       29.340663
    8       30.601468
    9       30.906217
 
  0.4375000E+00  0.3125000E+00  0.6250000E-01  0.2343750E-01
    1        6.402964
    2        6.697241
    3        9.613774
    4       10.896851
    5       11.725318
    6       13.682985
    7       26.343469
    8       28.346692
    9       28.886505
 
 -0.4375000E+00  0.3125000E+00  0.6250000E-01  0.2343750E-01
    1        6.500518
    2        7.209383
    3        9.145393
    4       10.439865
    5       12.069950
    6       17.430333
    7       21.763029
    8       26.735933
    9       28.791576
 
 -0.3125000E+00  0.3125000E+00  0.6250000E-01  0.2343750E-01
    1        7.032056
    2        7.733974
    3        8.462149
    4       10.117476
    5       11.428167
    6       17.678054
    7       22.319112
    8       25.158015
    9       30.558188
 
 -0.1875000E+00  0.3125000E+00  0.6250000E-01  0.2343750E-01
    1        7.211294
    2        7.947575
    3        8.199731
    4        9.831885
    5       10.766743
    6       14.731792
    7       24.815229
    8       27.142538
    9       31.678092
 
 -0.6250000E-01  0.3125000E+00  0.6250000E-01  0.2343750E-01
    1        6.234049
    2        8.601548
    3        8.712443
    4        9.149344
    5       10.967410
    6       12.151749
    7       25.589859
    8       30.182891
    9       33.681895
 
  0.4375000E+00  0.4375000E+00  0.6250000E-01  0.1171875E-01
    1        5.813712
    2        6.105452
    3       11.489783
    4       11.615183
    5       12.135681
    6       14.214630
    7       26.211893
    8       26.502228
    9       27.128641
 
 -0.4375000E+00  0.4375000E+00  0.6250000E-01  0.2343750E-01
    1        5.857988
    2        6.214502
    3       10.860861
    4       11.571394
    5       12.345523
    6       17.025250
    7       24.108913
    8       24.744299
    9       26.344271
 
 -0.3125000E+00  0.4375000E+00  0.6250000E-01  0.2343750E-01
    1        6.382868
    2        7.052816
    3        9.407368
    4       10.770755
    5       12.005302
    6       19.509281
    7       21.074093
    8       24.520107
    9       28.357840
 
 -0.1875000E+00  0.4375000E+00  0.6250000E-01  0.2343750E-01
    1        6.790753
    2        7.664464
    3        9.020579
    4        9.678648
    5       11.755579
    6       17.356841
    7       20.631424
    8       27.566307
    9       30.574873
 
 -0.6250000E-01  0.4375000E+00  0.6250000E-01  0.2343750E-01
    1        6.063186
    2        8.297451
    3        8.860237
    4       10.216748
    5       11.880274
    6       14.165038
    7       21.307825
    8       29.152301
    9       32.705904
 
 -0.4375000E+00 -0.4375000E+00  0.6250000E-01  0.1171875E-01
    1        5.597931
    2        5.937907
    3       11.894223
    4       11.976657
    5       12.372982
    6       15.676572
    7       24.461927
    8       25.556892
    9       26.279025
 
 -0.3125000E+00 -0.4375000E+00  0.6250000E-01  0.2343750E-01
    1        6.071625
    2        6.375911
    3       10.338581
    4       11.407250
    5       12.094037
    6       15.472876
    7       25.063019
    8       26.453367
    9       27.068965
 
 -0.1875000E+00 -0.4375000E+00  0.6250000E-01  0.2343750E-01
    1        6.577070
    2        7.587026
    3        8.826796
    4        9.956746
    5       11.994476
    6       15.241163
    7       22.882578
    8       28.934700
    9       29.777162
 
 -0.3125000E+00 -0.3125000E+00  0.6250000E-01  0.1171875E-01
    1        6.159852
    2        6.427230
    3       10.650896
    4       11.059978
    5       11.823968
    6       12.467783
    7       27.774806
    8       28.654903
    9       28.799877
 
 -0.1875000E+00 -0.3125000E+00  0.6250000E-01  0.2343750E-01
    1        6.615568
    2        7.111690
    3        8.991280
    4       10.254938
    5       11.150261
    6       12.312249
    7       27.719378
    8       29.827541
    9       31.250199
 
 -0.1875000E+00 -0.1875000E+00  0.6250000E-01  0.1171875E-01
    1        6.023251
    2        7.378987
    3        9.325835
    4        9.743737
    5       10.197798
    6       11.162084
    7       30.505644
    8       31.813791
    9       32.627122
 
  0.1875000E+00  0.1875000E+00  0.1875000E+00  0.3906250E-02
    1        5.138787
    2        8.295390
    3        8.942009
    4        8.942009
    5       10.511207
    6       10.511207
    7       29.663333
    8       30.696839
    9       36.463329
 
  0.3125000E+00  0.1875000E+00  0.1875000E+00  0.1171875E-01
    1        6.046823
    2        7.934507
    3        8.967362
    4        9.322593
    5        9.985953
    6       11.549481
    7       28.588085
    8       30.424960
    9       34.673256
 
  0.4375000E+00  0.1875000E+00  0.1875000E+00  0.1171875E-01
    1        6.966345
    2        7.988978
    3        8.559480
    4        9.528048
    5       10.295483
    6       13.446726
    7       26.059752
    8       28.385374
    9       32.762113
 
 -0.4375000E+00  0.1875000E+00  0.1875000E+00  0.1171875E-01
    1        6.635234
    2        7.948679
    3        9.312467
    4        9.331404
    5       11.461290
    6       15.855881
    7       21.584800
    8       28.160492
    9       31.749027
 
 -0.3125000E+00  0.1875000E+00  0.1875000E+00  0.1171875E-01
    1        6.435817
    2        7.862233
    3        9.211415
    4        9.446082
    5       12.121172
    6       15.622783
    7       21.336012
    8       28.971699
    9       31.709862
 
 -0.1875000E+00  0.1875000E+00  0.1875000E+00  0.1171875E-01
    1        6.494314
    2        7.613428
    3        8.803492
    4        9.731654
    5       11.823369
    6       12.441868
    7       25.880214
    8       30.488899
    9       31.580213
 
  0.3125000E+00  0.3125000E+00  0.1875000E+00  0.1171875E-01
    1        6.221745
    2        7.988140
    3        8.795378
    4        9.327956
    5       11.109671
    6       11.394837
    7       27.203330
    8       30.919826
    9       33.645933
 
  0.4375000E+00  0.3125000E+00  0.1875000E+00  0.2343750E-01
    1        6.957891
    2        7.602403
    3        8.332380
    4       10.105492
    5       10.869793
    6       13.493841
    7       26.171660
    8       28.512448
    9       31.374037
 
 -0.4375000E+00  0.3125000E+00  0.1875000E+00  0.2343750E-01
    1        7.360073
    2        7.521447
    3        8.098299
    4       10.263022
    5       11.377371
    6       16.359495
    7       23.625209
    8       26.075846
    9       29.662360
 
 -0.3125000E+00  0.3125000E+00  0.1875000E+00  0.2343750E-01
    1        6.983849
    2        7.407795
    3        8.617159
    4       10.138333
    5       11.921972
    6       18.439065
    7       20.696760
    8       27.223400
    9       28.027582
 
 -0.1875000E+00  0.3125000E+00  0.1875000E+00  0.2343750E-01
    1        6.830484
    2        7.195935
    3        8.630355
    4       10.652698
    5       11.486943
    6       15.036712
    7       24.917080
    8       27.283770
    9       29.115688
 
  0.4375000E+00  0.4375000E+00  0.1875000E+00  0.1171875E-01
    1        6.405991
    2        7.109867
    3        9.317514
    4       10.243527
    5       12.119219
    6       14.237404
    7       24.482987
    8       28.867068
    9       29.816963
 
 -0.4375000E+00  0.4375000E+00  0.1875000E+00  0.2343750E-01
    1        6.530682
    2        6.877388
    3        9.166287
    4       10.975357
    5       11.992985
    6       16.951101
    7       23.821095
    8       26.175443
    9       26.754969
 
 -0.3125000E+00  0.4375000E+00  0.1875000E+00  0.2343750E-01
    1        6.746363
    2        7.468805
    3        8.434220
    4       10.498701
    5       12.331937
    6       20.435751
    7       21.946649
    8       24.326559
    9       25.373632
 
 -0.1875000E+00  0.4375000E+00  0.1875000E+00  0.2343750E-01
    1        7.001724
    2        7.479712
    3        8.247590
    4       10.483997
    5       11.950715
    6       18.362609
    7       22.587520
    8       25.314191
    9       27.137836
 
 -0.4375000E+00 -0.4375000E+00  0.1875000E+00  0.1171875E-01
    1        6.018331
    2        6.541867
    3       10.341659
    4       11.221077
    5       12.145961
    6       18.052419
    7       22.538280
    8       24.519284
    9       27.893079
 
 -0.3125000E+00 -0.4375000E+00  0.1875000E+00  0.2343750E-01
    1        6.311110
    2        6.740696
    3        9.585575
    4       11.002567
    5       12.334960
    6       18.732287
    7       23.146408
    8       24.457366
    9       25.854707
 
 -0.3125000E+00 -0.3125000E+00  0.1875000E+00  0.1171875E-01
    1        6.185144
    2        6.725688
    3        9.936759
    4       10.790391
    5       12.217716
    6       16.284121
    7       23.263193
    8       26.526517
    9       28.551820
 
  0.3125000E+00  0.3125000E+00  0.3125000E+00  0.3906250E-02
    1        5.882782
    2        8.826923
    3        8.826923
    4        9.468126
    5       11.152024
    6       11.152024
    7       25.368899
    8       30.002058
    9       36.918119
 
  0.4375000E+00  0.3125000E+00  0.3125000E+00  0.1171875E-01
    1        6.339759
    2        8.459321
    3        9.051037
    4        9.242789
    5       10.924064
    6       13.208068
    7       24.138232
    8       29.528751
    9       32.719821
 
 -0.4375000E+00  0.3125000E+00  0.3125000E+00  0.1171875E-01
    1        7.166992
    2        7.913705
    3        8.458309
    4        9.793441
    5       10.978789
    6       16.077385
    7       23.563609
    8       25.957990
    9       32.208118
 
 -0.3125000E+00  0.3125000E+00  0.3125000E+00  0.1171875E-01
    1        6.617769
    2        7.496984
    3        8.993666
    4       10.400767
    5       11.647166
    6       19.117115
    7       20.957809
    8       24.685762
    9       30.620245
 
  0.4375000E+00  0.4375000E+00  0.3125000E+00  0.1171875E-01
    1        6.181217
    2        8.282459
    3        9.060532
    4        9.477184
    5       12.031664
    6       13.520657
    7       22.557953
    8       29.549946
    9       32.952301
 
 -0.4375000E+00  0.4375000E+00  0.3125000E+00  0.2343750E-01
    1        6.805678
    2        7.677433
    3        8.836816
    4        9.741918
    5       11.767403
    6       16.338900
    7       21.594233
    8       28.433103
    9       29.729065
 
 -0.3125000E+00  0.4375000E+00  0.3125000E+00  0.2343750E-01
    1        6.882607
    2        7.522085
    3        8.457841
    4       10.389605
    5       11.950961
    6       19.632760
    7       21.207474
    8       24.731116
    9       27.810425
 
 -0.4375000E+00 -0.4375000E+00  0.3125000E+00  0.1171875E-01
    1        6.602618
    2        7.570481
    3        9.057123
    4        9.943843
    5       11.946948
    6       17.859335
    7       20.480475
    8       27.001915
    9       30.958808
 
  0.4375000E+00  0.4375000E+00  0.4375000E+00  0.3906250E-02
    1        5.741575
    2        8.568157
    3        8.568157
    4       11.929509
    5       11.929509
    6       12.157875
    7       21.272922
    8       28.787143
    9       34.688699
 
 -0.4375000E+00  0.4375000E+00  0.4375000E+00  0.1171875E-01
    1        6.131574
    2        8.188510
    3        8.902760
    4       10.231594
    5       11.884982
    6       15.083060
    7       20.526775
    8       29.022692
    9       32.358225
