 vasp.5.3.5 31Mar14 (build Jan 09 2015 16:57:47) complex                        
  
 executed on             LinuxIFC date 2015.03.24  14:25:57
 serial version


--------------------------------------------------------------------------------------------------------


 INCAR:
 POTCAR:    PAW_PBE Pd 04Jan2005                  
 POTCAR:    PAW_PBE Pd 04Jan2005                  
   VRHFIN =Pd : s1 d9                                                           
   LEXCH  = PE                                                                  
   EATOM  =   809.7530 eV,   59.5152 Ry                                         
                                                                                
   TITEL  = PAW_PBE Pd 04Jan2005                                                
   LULTRA =        F    use ultrasoft PP ?                                      
   IUNSCR =        1    unscreen: 0-lin 1-nonlin 2-no                           
   RPACOR =    2.000    partial core radius                                     
   POMASS =  106.420; ZVAL   =   10.000    mass and valenz                      
   RCORE  =    2.600    outmost cutoff radius                                   
   RWIGS  =    2.710; RWIGS  =    1.434    wigner-seitz radius (au A)           
   ENMAX  =  250.925; ENMIN  =  188.194 eV                                      
   ICORE  =        3    local potential                                         
   LCOR   =        T    correct aug charges                                     
   LPAW   =        T    paw PP                                                  
   EAUG   =  416.230                                                            
   DEXC   =    0.000                                                            
   RMAX   =    2.653    core radius for proj-oper                               
   RAUG   =    1.300    factor for augmentation sphere                          
   RDEP   =    2.734    radius for radial grids                                 
   RDEPT  =    2.103    core radius for aug-charge                              
                                                                                
   Atomic configuration                                                         
   12 entries                                                                   
     n  l   j            E        occ.                                          
     1  0  0.50    -24164.6631   2.0000                                         
     2  0  0.50     -3530.9218   2.0000                                         
     2  1  1.50     -3165.6822   6.0000                                         
     3  0  0.50      -639.4577   2.0000                                         
     3  1  1.50      -519.4532   6.0000                                         
     3  2  2.50      -328.9757  10.0000                                         
     4  0  0.50       -88.7014   2.0000                                         
     4  1  1.50       -54.4540   6.0000                                         
     4  2  2.50        -6.6878   9.0000                                         
     5  0  0.50        -4.3543   1.0000                                         
     5  1  0.50        -1.3606   0.0000                                         
     4  3  2.50        -1.3606   0.0000                                         
   Description                                                                  
     l       E           TYP  RCUT    TYP  RCUT                                 
     2     -6.6878251     23  2.400                                             
     2     -8.0484077     23  2.400                                             
     0     -4.3542939     23  2.400                                             
     0      4.3406793     23  2.400                                             
     1     -4.0817478     23  2.600                                             
     1     15.8380318     23  2.600                                             
     3     -4.0817478     23  2.400                                             
  local pseudopotential read in
  partial core-charges read in
  partial kinetic energy density read in
  atomic valenz-charges read in
  non local Contribution for L=           2  read in
    real space projection operators read in
  non local Contribution for L=           2  read in
    real space projection operators read in
  non local Contribution for L=           0  read in
    real space projection operators read in
  non local Contribution for L=           0  read in
    real space projection operators read in
  non local Contribution for L=           1  read in
    real space projection operators read in
  non local Contribution for L=           1  read in
    real space projection operators read in
    PAW grid and wavefunctions read in
 
   number of l-projection  operators is LMAX  =           6
   number of lm-projection operators is LMMAX =          18
 
  PAW_PBE Pd 04Jan2005                  :
 energy of atom  1       EATOM= -809.7530
 kinetic energy error for atom=    0.0269 (will be added to EATOM!!)
 
 
 POSCAR: Pd                                      
  positions in cartesian coordinates
  No initial velocities read in
 exchange correlation table for  LEXCH =        8
   RHO(1)=    0.500       N(1)  =     2000
   RHO(2)=  100.500       N(2)  =     4000

 VTST: version 3.1, (03/28/14)

 CHAIN: initializing optimizer
 
 OPT: Using VASP Conjugate-Gradient optimizer
 CHAIN: Read ICHAIN            0
 
 POSCAR: Pd                                      
  positions in cartesian coordinates
  No initial velocities read in
 


--------------------------------------------------------------------------------------------------------


 ion  position               nearest neighbor table
   1  0.000  0.000  0.000-
 
  LATTYP: Found a face centered cubic cell.
 ALAT       =     3.7344000000
  
  Lattice vectors:
  
 A1 = (   2.6406195637,   0.0000000000,   0.0000000000)
 A2 = (   1.3203097818,   2.2868436239,   0.0000000000)
 A3 = (   1.3203097818,   0.7622812080,   2.1560568453)


Analysis of symmetry for initial positions (statically):
=====================================================================
 Subroutine PRICEL returns:
 Original cell was already a primitive cell.
 

 Routine SETGRP: Setting up the symmetry group for a 
 face centered cubic supercell.


 Subroutine GETGRP returns: Found 48 space group operations
 (whereof 48 operations were pure point group operations)
 out of a pool of 48 trial point group operations.


The static configuration has the point symmetry O_h .


Analysis of symmetry for dynamics (positions and initial velocities):
=====================================================================
 Subroutine PRICEL returns:
 Original cell was already a primitive cell.
 

 Routine SETGRP: Setting up the symmetry group for a 
 face centered cubic supercell.


 Subroutine GETGRP returns: Found 48 space group operations
 (whereof 48 operations were pure point group operations)
 out of a pool of 48 trial point group operations.


The dynamic configuration has the point symmetry O_h .
 
 
 KPOINTS: KPOINTS created by Atomic Simulation Env

Automatic generation of k-mesh.
Space group operators:
 irot       det(A)        alpha          n_x          n_y          n_z        tau_x        tau_y        tau_z
    1     1.000000     0.000001     1.000000     0.000000     0.000000     0.000000     0.000000     0.000000
    2    -1.000000     0.000001     1.000000     0.000000     0.000000     0.000000     0.000000     0.000000
    3     1.000000   120.000000    -0.816497    -0.471405    -0.333333     0.000000     0.000000     0.000000
    4    -1.000000   120.000000    -0.816497    -0.471405    -0.333333     0.000000     0.000000     0.000000
    5     1.000000   120.000000     0.816497     0.471405     0.333333     0.000000     0.000000     0.000000
    6    -1.000000   120.000000     0.816497     0.471405     0.333333     0.000000     0.000000     0.000000
    7     1.000000    90.000000    -0.707107    -0.408248     0.577350     0.000000     0.000000     0.000000
    8    -1.000000    90.000000    -0.707107    -0.408248     0.577350     0.000000     0.000000     0.000000
    9     1.000000   180.000000     1.000000     0.000000     0.000000     0.000000     0.000000     0.000000
   10    -1.000000   180.000000     1.000000     0.000000     0.000000     0.000000     0.000000     0.000000
   11     1.000000    90.000000     0.707107    -0.408248     0.577350     0.000000     0.000000     0.000000
   12    -1.000000    90.000000     0.707107    -0.408248     0.577350     0.000000     0.000000     0.000000
   13     1.000000   180.000000     0.707107     0.408248    -0.577350     0.000000     0.000000     0.000000
   14    -1.000000   180.000000     0.707107     0.408248    -0.577350     0.000000     0.000000     0.000000
   15     1.000000   120.000000     0.816497    -0.471405    -0.333333     0.000000     0.000000     0.000000
   16    -1.000000   120.000000     0.816497    -0.471405    -0.333333     0.000000     0.000000     0.000000
   17     1.000000   120.000000     0.000000    -0.942809     0.333333     0.000000     0.000000     0.000000
   18    -1.000000   120.000000     0.000000    -0.942809     0.333333     0.000000     0.000000     0.000000
   19     1.000000    90.000000     0.707107     0.408248    -0.577350     0.000000     0.000000     0.000000
   20    -1.000000    90.000000     0.707107     0.408248    -0.577350     0.000000     0.000000     0.000000
   21     1.000000    90.000000     0.000000    -0.816497    -0.577350     0.000000     0.000000     0.000000
   22    -1.000000    90.000000     0.000000    -0.816497    -0.577350     0.000000     0.000000     0.000000
   23     1.000000   180.000000     0.500000     0.866025     0.000000     0.000000     0.000000     0.000000
   24    -1.000000   180.000000     0.500000     0.866025     0.000000     0.000000     0.000000     0.000000
   25     1.000000   120.000000     0.000000     0.942809    -0.333333     0.000000     0.000000     0.000000
   26    -1.000000   120.000000     0.000000     0.942809    -0.333333     0.000000     0.000000     0.000000
   27     1.000000   120.000000     0.000000     0.000000    -1.000000     0.000000     0.000000     0.000000
   28    -1.000000   120.000000     0.000000     0.000000    -1.000000     0.000000     0.000000     0.000000
   29     1.000000   180.000000     0.000000    -0.816497    -0.577350     0.000000     0.000000     0.000000
   30    -1.000000   180.000000     0.000000    -0.816497    -0.577350     0.000000     0.000000     0.000000
   31     1.000000    90.000000    -0.707107     0.408248    -0.577350     0.000000     0.000000     0.000000
   32    -1.000000    90.000000    -0.707107     0.408248    -0.577350     0.000000     0.000000     0.000000
   33     1.000000   179.999999     0.500000     0.288675     0.816497     0.000000     0.000000     0.000000
   34    -1.000000   179.999999     0.500000     0.288675     0.816497     0.000000     0.000000     0.000000
   35     1.000000    90.000000     0.000000     0.816497     0.577350     0.000000     0.000000     0.000000
   36    -1.000000    90.000000     0.000000     0.816497     0.577350     0.000000     0.000000     0.000000
   37     1.000000   120.000000    -0.816497     0.471405     0.333333     0.000000     0.000000     0.000000
   38    -1.000000   120.000000    -0.816497     0.471405     0.333333     0.000000     0.000000     0.000000
   39     1.000000   179.999999    -0.707107     0.408248    -0.577350     0.000000     0.000000     0.000000
   40    -1.000000   179.999999    -0.707107     0.408248    -0.577350     0.000000     0.000000     0.000000
   41     1.000000   120.000000     0.000000     0.000000     1.000000     0.000000     0.000000     0.000000
   42    -1.000000   120.000000     0.000000     0.000000     1.000000     0.000000     0.000000     0.000000
   43     1.000000   180.000000     0.000000    -0.577350     0.816497     0.000000     0.000000     0.000000
   44    -1.000000   180.000000     0.000000    -0.577350     0.816497     0.000000     0.000000     0.000000
   45     1.000000   180.000000    -0.500000     0.866025     0.000000     0.000000     0.000000     0.000000
   46    -1.000000   180.000000    -0.500000     0.866025     0.000000     0.000000     0.000000     0.000000
   47     1.000000   179.999999    -0.500000     0.288675     0.816497     0.000000     0.000000     0.000000
   48    -1.000000   179.999999    -0.500000     0.288675     0.816497     0.000000     0.000000     0.000000
 
 Subroutine IBZKPT returns following result:
 ===========================================
 
 Found     60 irreducible k-points:
 
 Following reciprocal coordinates:
            Coordinates               Weight
  0.062500  0.062500  0.062500     96.000000
  0.187500  0.062500  0.062500    288.000000
  0.312500  0.062500  0.062500    288.000000
  0.437500  0.062500  0.062500    288.000000
 -0.437500  0.062500  0.062500    288.000000
 -0.312500  0.062500  0.062500    288.000000
 -0.187500  0.062500  0.062500    288.000000
 -0.062500  0.062500  0.062500    288.000000
  0.187500  0.187500  0.062500    288.000000
  0.312500  0.187500  0.062500    576.000000
  0.437500  0.187500  0.062500    576.000000
 -0.437500  0.187500  0.062500    576.000000
 -0.312500  0.187500  0.062500    576.000000
 -0.187500  0.187500  0.062500    576.000000
 -0.062500  0.187500  0.062500    576.000000
  0.312500  0.312500  0.062500    288.000000
  0.437500  0.312500  0.062500    576.000000
 -0.437500  0.312500  0.062500    576.000000
 -0.312500  0.312500  0.062500    576.000000
 -0.187500  0.312500  0.062500    576.000000
 -0.062500  0.312500  0.062500    576.000000
  0.437500  0.437500  0.062500    288.000000
 -0.437500  0.437500  0.062500    576.000000
 -0.312500  0.437500  0.062500    576.000000
 -0.187500  0.437500  0.062500    576.000000
 -0.062500  0.437500  0.062500    576.000000
 -0.437500 -0.437500  0.062500    288.000000
 -0.312500 -0.437500  0.062500    576.000000
 -0.187500 -0.437500  0.062500    576.000000
 -0.312500 -0.312500  0.062500    288.000000
 -0.187500 -0.312500  0.062500    576.000000
 -0.187500 -0.187500  0.062500    288.000000
  0.187500  0.187500  0.187500     96.000000
  0.312500  0.187500  0.187500    288.000000
  0.437500  0.187500  0.187500    288.000000
 -0.437500  0.187500  0.187500    288.000000
 -0.312500  0.187500  0.187500    288.000000
 -0.187500  0.187500  0.187500    288.000000
  0.312500  0.312500  0.187500    288.000000
  0.437500  0.312500  0.187500    576.000000
 -0.437500  0.312500  0.187500    576.000000
 -0.312500  0.312500  0.187500    576.000000
 -0.187500  0.312500  0.187500    576.000000
  0.437500  0.437500  0.187500    288.000000
 -0.437500  0.437500  0.187500    576.000000
 -0.312500  0.437500  0.187500    576.000000
 -0.187500  0.437500  0.187500    576.000000
 -0.437500 -0.437500  0.187500    288.000000
 -0.312500 -0.437500  0.187500    576.000000
 -0.312500 -0.312500  0.187500    288.000000
  0.312500  0.312500  0.312500     96.000000
  0.437500  0.312500  0.312500    288.000000
 -0.437500  0.312500  0.312500    288.000000
 -0.312500  0.312500  0.312500    288.000000
  0.437500  0.437500  0.312500    288.000000
 -0.437500  0.437500  0.312500    576.000000
 -0.312500  0.437500  0.312500    576.000000
 -0.437500 -0.437500  0.312500    288.000000
  0.437500  0.437500  0.437500     96.000000
 -0.437500  0.437500  0.437500    288.000000
 
 Following cartesian coordinates:
            Coordinates               Weight
  0.023669  0.013665  0.009663     96.000000
  0.071006 -0.013665 -0.009663    288.000000
  0.118343 -0.040995 -0.028988    288.000000
  0.165681 -0.068326 -0.048314    288.000000
 -0.165681  0.122986  0.086964    288.000000
 -0.118343  0.095656  0.067639    288.000000
 -0.071006  0.068326  0.048314    288.000000
 -0.023669  0.040995  0.028988    288.000000
  0.071006  0.040995 -0.028988    288.000000
  0.118343  0.013665 -0.048314    576.000000
  0.165681 -0.013665 -0.067639    576.000000
 -0.165681  0.177647  0.067639    576.000000
 -0.118343  0.150316  0.048314    576.000000
 -0.071006  0.122986  0.028988    576.000000
 -0.023669  0.095656  0.009663    576.000000
  0.118343  0.068326 -0.067639    288.000000
  0.165681  0.040995 -0.086964    576.000000
 -0.165681  0.232307  0.048314    576.000000
 -0.118343  0.204977  0.028988    576.000000
 -0.071006  0.177647  0.009663    576.000000
 -0.023669  0.150316 -0.009663    576.000000
  0.165681  0.095656 -0.106290    288.000000
 -0.165681  0.286968  0.028988    576.000000
 -0.118343  0.259637  0.009663    576.000000
 -0.071006  0.232307 -0.009663    576.000000
 -0.023669  0.204977 -0.028988    576.000000
 -0.165681 -0.095656  0.164266    288.000000
 -0.118343 -0.122986  0.144941    576.000000
 -0.071006 -0.150316  0.125615    576.000000
 -0.118343 -0.068326  0.125615    288.000000
 -0.071006 -0.095656  0.106290    576.000000
 -0.071006 -0.040995  0.086964    288.000000
  0.071006  0.040995  0.028988     96.000000
  0.118343  0.013665  0.009663    288.000000
  0.165681 -0.013665 -0.009663    288.000000
 -0.165681  0.177647  0.125615    288.000000
 -0.118343  0.150316  0.106290    288.000000
 -0.071006  0.122986  0.086964    288.000000
  0.118343  0.068326 -0.009663    288.000000
  0.165681  0.040995 -0.028988    576.000000
 -0.165681  0.232307  0.106290    576.000000
 -0.118343  0.204977  0.086964    576.000000
 -0.071006  0.177647  0.067639    576.000000
  0.165681  0.095656 -0.048314    288.000000
 -0.165681  0.286968  0.086964    576.000000
 -0.118343  0.259637  0.067639    576.000000
 -0.071006  0.232307  0.048314    576.000000
 -0.165681 -0.095656  0.222242    288.000000
 -0.118343 -0.122986  0.202917    576.000000
 -0.118343 -0.068326  0.183591    288.000000
  0.118343  0.068326  0.048314     96.000000
  0.165681  0.040995  0.028988    288.000000
 -0.165681  0.232307  0.164266    288.000000
 -0.118343  0.204977  0.144941    288.000000
  0.165681  0.095656  0.009663    288.000000
 -0.165681  0.286968  0.144941    576.000000
 -0.118343  0.259637  0.125615    576.000000
 -0.165681 -0.095656  0.280218    288.000000
  0.165681  0.095656  0.067639     96.000000
 -0.165681  0.286968  0.202917    288.000000
 


--------------------------------------------------------------------------------------------------------




 Dimension of arrays:
   k-points           NKPTS =     60   k-points in BZ     NKDIM =     60   number of bands    NBANDS=      9
   number of dos      NEDOS =    301   number of ions     NIONS =      1
   non local maximal  LDIM  =      6   non local SUM 2l+1 LMDIM =     18
   total plane-waves  NPLWV =   1728
   max r-space proj   IRMAX =      1   max aug-charges    IRDMAX=   6637
   dimension x,y,z NGX =    12 NGY =   12 NGZ =   12
   dimension x,y,z NGXF=    24 NGYF=   24 NGZF=   24
   support grid    NGXF=    24 NGYF=   24 NGZF=   24
   ions per type =               1
 NGX,Y,Z   is equivalent  to a cutoff of   7.55,  7.55,  7.55 a.u.
 NGXF,Y,Z  is equivalent  to a cutoff of  15.11, 15.11, 15.11 a.u.


 I would recommend the setting:
   dimension x,y,z NGX =    12 NGY =   12 NGZ =   12
 SYSTEM =  unknown system                          
 POSCAR =  Pd                                      

 Startparameter for this run:
   NWRITE =      2    write-flag & timer
   PREC   = normal    normal or accurate (medium, high low for compatibility)
   ISTART =      0    job   : 0-new  1-cont  2-samecut
   ICHARG =      2    charge: 1-file 2-atom 10-const
   ISPIN  =      1    spin polarized calculation?
   LNONCOLLINEAR =      F non collinear calculations
   LSORBIT =      F    spin-orbit coupling
   INIWAV =      1    electr: 0-lowe 1-rand  2-diag
   LASPH  =      F    aspherical Exc in radial PAW
   METAGGA=      F    non-selfconsistent MetaGGA calc.

 Electronic Relaxation 1
   ENCUT  =  350.0 eV  25.72 Ry    5.07 a.u.   4.03  4.03  4.03*2*pi/ulx,y,z
   ENINI  =  350.0     initial cutoff
   ENAUG  =  416.2 eV  augmentation charge cutoff
   NELM   =     60;   NELMIN=  2; NELMDL= -5     # of ELM steps 
   EDIFF  = 0.1E-03   stopping-criterion for ELM
   LREAL  =      F    real-space projection
   NLSPLINE    = F    spline interpolate recip. space projectors
   LCOMPAT=      F    compatible to vasp.4.4
   GGA_COMPAT  = T    GGA compatible to vasp.4.4-vasp.4.6
   LMAXPAW     = -100 max onsite density
   LMAXMIX     =    2 max onsite mixed and CHGCAR
   VOSKOWN=      0    Vosko Wilk Nusair interpolation
   ROPT   =    0.00000
 Ionic relaxation
   EDIFFG = 0.1E-02   stopping-criterion for IOM
   NSW    =     30    number of steps for IOM
   NBLOCK =      1;   KBLOCK =     30    inner block; outer block 
   IBRION =      2    ionic relax: 0-MD 1-quasi-New 2-CG
   NFREE  =      1    steps in history (QN), initial steepest desc. (CG)
   ISIF   =      2    stress and relaxation
   IWAVPR =     11    prediction:  0-non 1-charg 2-wave 3-comb
   ISYM   =      2    0-nonsym 1-usesym 2-fastsym
   LCORR  =      T    Harris-Foulkes like correction to forces

   POTIM  = 0.5000    time-step for ionic-motion
   TEIN   =    0.0    initial temperature
   TEBEG  =    0.0;   TEEND  =   0.0 temperature during run
   SMASS  =  -3.00    Nose mass-parameter (am)
   estimated Nose-frequenzy (Omega)   =  0.10E-29 period in steps =****** mass=  -0.159E-27a.u.
   SCALEE = 1.0000    scale energy and forces
   NPACO  =    256;   APACO  = 16.0  distance and # of slots for P.C.
   PSTRESS=    0.0 pullay stress

  Mass of Ions in am
   POMASS = 106.42
  Ionic Valenz
   ZVAL   =  10.00
  Atomic Wigner-Seitz radii
   RWIGS  =  -1.00
  virtual crystal weights 
   VCA    =   1.00
   NELECT =      10.0000    total number of electrons
   NUPDOWN=      -1.0000    fix difference up-down

 DOS related values:
   EMIN   =  10.00;   EMAX   =-10.00  energy-range for DOS
   EFERMI =   0.00
   ISMEAR =     1;   SIGMA  =   0.20  broadening in eV -4-tet -1-fermi 0-gaus

 Electronic relaxation 2 (details)
   IALGO  =     38    algorithm
   LDIAG  =      T    sub-space diagonalisation (order eigenvalues)
   LSUBROT=      F    optimize rotation matrix (better conditioning)
   TURBO    =      0    0=normal 1=particle mesh
   IRESTART =      0    0=no restart 2=restart with 2 vectors
   NREBOOT  =      0    no. of reboots
   NMIN     =      0    reboot dimension
   EREF     =   0.00    reference energy to select bands
   IMIX   =      4    mixing-type and parameters
     AMIX     =   0.40;   BMIX     =  1.00
     AMIX_MAG =   1.60;   BMIX_MAG =  1.00
     AMIN     =   0.10
     WC   =   100.;   INIMIX=   1;  MIXPRE=   1;  MAXMIX= -45

 Intra band minimization:
   WEIMIN = 0.0010     energy-eigenvalue tresh-hold
   EBREAK =  0.28E-05  absolut break condition
   DEPER  =   0.30     relativ break condition  

   TIME   =   0.40     timestep for ELM

  volume/ion in A,a.u.               =      13.02        87.86
  Fermi-wavevector in a.u.,A,eV,Ry     =   1.499250  2.833171 30.582494  2.247750
  Thomas-Fermi vector in A             =   2.610904
 
 Write flags
   LWAVE  =      T    write WAVECAR
   LCHARG =      T    write CHGCAR
   LVTOT  =      F    write LOCPOT, total local potential
   LVHAR  =      F    write LOCPOT, Hartree potential only
   LELF   =      F    write electronic localiz. function (ELF)
   LORBIT =      0    0 simple, 1 ext, 2 COOP (PROOUT)


 Dipole corrections
   LMONO  =      F    monopole corrections only (constant potential shift)
   LDIPOL =      F    correct potential (dipole corrections)
   IDIPOL =      0    1-x, 2-y, 3-z, 4-all directions 
   EPSILON=  1.0000000 bulk dielectric constant

 Exchange correlation treatment:
   GGA     =    --    GGA type
   LEXCH   =     8    internal setting for exchange type
   VOSKOWN=      0    Vosko Wilk Nusair interpolation
   LHFCALC =     F    Hartree Fock is set to
   LHFONE  =     F    Hartree Fock one center treatment
   AEXX    =    0.0000 exact exchange contribution

 Linear response parameters
   LEPSILON=     F    determine dielectric tensor
   LRPA    =     F    only Hartree local field effects (RPA)
   LNABLA  =     F    use nabla operator in PAW spheres
   LVEL    =     F    velocity operator in full k-point grid
   LINTERFAST=   F  fast interpolation
   KINTER  =     0    interpolate to denser k-point grid
   CSHIFT  =0.1000    complex shift for real part using Kramers Kronig
   OMEGAMAX=  -1.0    maximum frequency
   DEG_THRESHOLD= 0.2000000E-02 threshold for treating states as degnerate
   RTIME   =    0.100 relaxation time in fs

 Orbital magnetization related:
   ORBITALMAG=     F  switch on orbital magnetization
   LCHIMAG   =     F  perturbation theory with respect to B field
   DQ        =  0.001000  dq finite difference perturbation B field



--------------------------------------------------------------------------------------------------------


 conjugate gradient relaxation of ions
 charge density and potential will be updated during run
 non-spin polarized calculation
 Variant of blocked Davidson
 Davidson routine will perform the subspace rotation
 perform sub-space diagonalisation
    after iterative eigenvector-optimisation
 modified Broyden-mixing scheme, WC =      100.0
 initial mixing is a Kerker type mixing with AMIX =  0.4000 and BMIX =      1.0000
 Hartree-type preconditioning will be used
 using additional bands            4
 reciprocal scheme for non local part
 use partial core corrections
 calculate Harris-corrections to forces 
   (improved forces if not selfconsistent)
 use gradient corrections 
 use of overlap-Matrix (Vanderbilt PP)
 Methfessel and Paxton  Order N= 1 SIGMA  =   0.20


--------------------------------------------------------------------------------------------------------


  energy-cutoff  :      350.00
  volume of cell :       13.02
      direct lattice vectors                 reciprocal lattice vectors
     2.640619564  0.000000000  0.000000000     0.378699004 -0.218641972 -0.154603221
     1.320309782  2.286843624  0.000000000     0.000000000  0.437283944 -0.154603221
     1.320309782  0.762281208  2.156056845     0.000000000  0.000000000  0.463809664

  length of vectors
     2.640619564  2.640619564  2.640619564     0.463809664  0.463809664  0.463809664


 
 k-points in units of 2pi/SCALE and weight: KPOINTS created by Atomic Simulation Env
   0.02366869  0.01366512  0.00966270       0.004
   0.07100606 -0.01366512 -0.00966270       0.012
   0.11834344 -0.04099537 -0.02898810       0.012
   0.16568081 -0.06832562 -0.04831351       0.012
  -0.16568081  0.12298611  0.08696431       0.012
  -0.11834344  0.09565586  0.06763891       0.012
  -0.07100606  0.06832562  0.04831351       0.012
  -0.02366869  0.04099537  0.02898810       0.012
   0.07100606  0.04099537 -0.02898810       0.012
   0.11834344  0.01366512 -0.04831351       0.023
   0.16568081 -0.01366512 -0.06763891       0.023
  -0.16568081  0.17764660  0.06763891       0.023
  -0.11834344  0.15031636  0.04831351       0.023
  -0.07100606  0.12298611  0.02898810       0.023
  -0.02366869  0.09565586  0.00966270       0.023
   0.11834344  0.06832562 -0.06763891       0.012
   0.16568081  0.04099537 -0.08696431       0.023
  -0.16568081  0.23230710  0.04831351       0.023
  -0.11834344  0.20497685  0.02898810       0.023
  -0.07100606  0.17764660  0.00966270       0.023
  -0.02366869  0.15031636 -0.00966270       0.023
   0.16568081  0.09565586 -0.10628971       0.012
  -0.16568081  0.28696759  0.02898810       0.023
  -0.11834344  0.25963734  0.00966270       0.023
  -0.07100606  0.23230710 -0.00966270       0.023
  -0.02366869  0.20497685 -0.02898810       0.023
  -0.16568081 -0.09565586  0.16426592       0.012
  -0.11834344 -0.12298611  0.14494052       0.023
  -0.07100606 -0.15031636  0.12561512       0.023
  -0.11834344 -0.06832562  0.12561512       0.012
  -0.07100606 -0.09565586  0.10628971       0.023
  -0.07100606 -0.04099537  0.08696431       0.012
   0.07100606  0.04099537  0.02898810       0.004
   0.11834344  0.01366512  0.00966270       0.012
   0.16568081 -0.01366512 -0.00966270       0.012
  -0.16568081  0.17764660  0.12561512       0.012
  -0.11834344  0.15031636  0.10628971       0.012
  -0.07100606  0.12298611  0.08696431       0.012
   0.11834344  0.06832562 -0.00966270       0.012
   0.16568081  0.04099537 -0.02898810       0.023
  -0.16568081  0.23230710  0.10628971       0.023
  -0.11834344  0.20497685  0.08696431       0.023
  -0.07100606  0.17764660  0.06763891       0.023
   0.16568081  0.09565586 -0.04831351       0.012
  -0.16568081  0.28696759  0.08696431       0.023
  -0.11834344  0.25963734  0.06763891       0.023
  -0.07100606  0.23230710  0.04831351       0.023
  -0.16568081 -0.09565586  0.22224213       0.012
  -0.11834344 -0.12298611  0.20291673       0.023
  -0.11834344 -0.06832562  0.18359133       0.012
   0.11834344  0.06832562  0.04831351       0.004
   0.16568081  0.04099537  0.02898810       0.012
  -0.16568081  0.23230710  0.16426592       0.012
  -0.11834344  0.20497685  0.14494052       0.012
   0.16568081  0.09565586  0.00966270       0.012
  -0.16568081  0.28696759  0.14494052       0.023
  -0.11834344  0.25963734  0.12561512       0.023
  -0.16568081 -0.09565586  0.28021834       0.012
   0.16568081  0.09565586  0.06763891       0.004
  -0.16568081  0.28696759  0.20291673       0.012
 
 k-points in reciprocal lattice and weights: KPOINTS created by Atomic Simulation Env
   0.06250000  0.06250000  0.06250000       0.004
   0.18750000  0.06250000  0.06250000       0.012
   0.31250000  0.06250000  0.06250000       0.012
   0.43750000  0.06250000  0.06250000       0.012
  -0.43750000  0.06250000  0.06250000       0.012
  -0.31250000  0.06250000  0.06250000       0.012
  -0.18750000  0.06250000  0.06250000       0.012
  -0.06250000  0.06250000  0.06250000       0.012
   0.18750000  0.18750000  0.06250000       0.012
   0.31250000  0.18750000  0.06250000       0.023
   0.43750000  0.18750000  0.06250000       0.023
  -0.43750000  0.18750000  0.06250000       0.023
  -0.31250000  0.18750000  0.06250000       0.023
  -0.18750000  0.18750000  0.06250000       0.023
  -0.06250000  0.18750000  0.06250000       0.023
   0.31250000  0.31250000  0.06250000       0.012
   0.43750000  0.31250000  0.06250000       0.023
  -0.43750000  0.31250000  0.06250000       0.023
  -0.31250000  0.31250000  0.06250000       0.023
  -0.18750000  0.31250000  0.06250000       0.023
  -0.06250000  0.31250000  0.06250000       0.023
   0.43750000  0.43750000  0.06250000       0.012
  -0.43750000  0.43750000  0.06250000       0.023
  -0.31250000  0.43750000  0.06250000       0.023
  -0.18750000  0.43750000  0.06250000       0.023
  -0.06250000  0.43750000  0.06250000       0.023
  -0.43750000 -0.43750000  0.06250000       0.012
  -0.31250000 -0.43750000  0.06250000       0.023
  -0.18750000 -0.43750000  0.06250000       0.023
  -0.31250000 -0.31250000  0.06250000       0.012
  -0.18750000 -0.31250000  0.06250000       0.023
  -0.18750000 -0.18750000  0.06250000       0.012
   0.18750000  0.18750000  0.18750000       0.004
   0.31250000  0.18750000  0.18750000       0.012
   0.43750000  0.18750000  0.18750000       0.012
  -0.43750000  0.18750000  0.18750000       0.012
  -0.31250000  0.18750000  0.18750000       0.012
  -0.18750000  0.18750000  0.18750000       0.012
   0.31250000  0.31250000  0.18750000       0.012
   0.43750000  0.31250000  0.18750000       0.023
  -0.43750000  0.31250000  0.18750000       0.023
  -0.31250000  0.31250000  0.18750000       0.023
  -0.18750000  0.31250000  0.18750000       0.023
   0.43750000  0.43750000  0.18750000       0.012
  -0.43750000  0.43750000  0.18750000       0.023
  -0.31250000  0.43750000  0.18750000       0.023
  -0.18750000  0.43750000  0.18750000       0.023
  -0.43750000 -0.43750000  0.18750000       0.012
  -0.31250000 -0.43750000  0.18750000       0.023
  -0.31250000 -0.31250000  0.18750000       0.012
   0.31250000  0.31250000  0.31250000       0.004
   0.43750000  0.31250000  0.31250000       0.012
  -0.43750000  0.31250000  0.31250000       0.012
  -0.31250000  0.31250000  0.31250000       0.012
   0.43750000  0.43750000  0.31250000       0.012
  -0.43750000  0.43750000  0.31250000       0.023
  -0.31250000  0.43750000  0.31250000       0.023
  -0.43750000 -0.43750000  0.31250000       0.012
   0.43750000  0.43750000  0.43750000       0.004
  -0.43750000  0.43750000  0.43750000       0.012
 
 position of ions in fractional coordinates (direct lattice) 
   0.00000000  0.00000000  0.00000000
 
 position of ions in cartesian coordinates  (Angst):
   0.00000000  0.00000000  0.00000000
 


--------------------------------------------------------------------------------------------------------


 k-point  1 :   0.0625 0.0625 0.0625  plane waves:     178
 k-point  2 :   0.1875 0.0625 0.0625  plane waves:     182
 k-point  3 :   0.3125 0.0625 0.0625  plane waves:     192
 k-point  4 :   0.4375 0.0625 0.0625  plane waves:     193
 k-point  5 :  -0.4375 0.0625 0.0625  plane waves:     192
 k-point  6 :  -0.3125 0.0625 0.0625  plane waves:     194
 k-point  7 :  -0.1875 0.0625 0.0625  plane waves:     190
 k-point  8 :  -0.0625 0.0625 0.0625  plane waves:     176
 k-point  9 :   0.1875 0.1875 0.0625  plane waves:     183
 k-point 10 :   0.3125 0.1875 0.0625  plane waves:     192
 k-point 11 :   0.4375 0.1875 0.0625  plane waves:     195
 k-point 12 :  -0.4375 0.1875 0.0625  plane waves:     193
 k-point 13 :  -0.3125 0.1875 0.0625  plane waves:     195
 k-point 14 :  -0.1875 0.1875 0.0625  plane waves:     193
 k-point 15 :  -0.0625 0.1875 0.0625  plane waves:     188
 k-point 16 :   0.3125 0.3125 0.0625  plane waves:     193
 k-point 17 :   0.4375 0.3125 0.0625  plane waves:     197
 k-point 18 :  -0.4375 0.3125 0.0625  plane waves:     195
 k-point 19 :  -0.3125 0.3125 0.0625  plane waves:     196
 k-point 20 :  -0.1875 0.3125 0.0625  plane waves:     195
 k-point 21 :  -0.0625 0.3125 0.0625  plane waves:     193
 k-point 22 :   0.4375 0.4375 0.0625  plane waves:     197
 k-point 23 :  -0.4375 0.4375 0.0625  plane waves:     199
 k-point 24 :  -0.3125 0.4375 0.0625  plane waves:     196
 k-point 25 :  -0.1875 0.4375 0.0625  plane waves:     195
 k-point 26 :  -0.0625 0.4375 0.0625  plane waves:     191
 k-point 27 :  -0.4375-0.4375 0.0625  plane waves:     195
 k-point 28 :  -0.3125-0.4375 0.0625  plane waves:     200
 k-point 29 :  -0.1875-0.4375 0.0625  plane waves:     192
 k-point 30 :  -0.3125-0.3125 0.0625  plane waves:     197
 k-point 31 :  -0.1875-0.3125 0.0625  plane waves:     192
 k-point 32 :  -0.1875-0.1875 0.0625  plane waves:     193
 k-point 33 :   0.1875 0.1875 0.1875  plane waves:     187
 k-point 34 :   0.3125 0.1875 0.1875  plane waves:     194
 k-point 35 :   0.4375 0.1875 0.1875  plane waves:     193
 k-point 36 :  -0.4375 0.1875 0.1875  plane waves:     192
 k-point 37 :  -0.3125 0.1875 0.1875  plane waves:     192
 k-point 38 :  -0.1875 0.1875 0.1875  plane waves:     192
 k-point 39 :   0.3125 0.3125 0.1875  plane waves:     196
 k-point 40 :   0.4375 0.3125 0.1875  plane waves:     195
 k-point 41 :  -0.4375 0.3125 0.1875  plane waves:     196
 k-point 42 :  -0.3125 0.3125 0.1875  plane waves:     197
 k-point 43 :  -0.1875 0.3125 0.1875  plane waves:     195
 k-point 44 :   0.4375 0.4375 0.1875  plane waves:     193
 k-point 45 :  -0.4375 0.4375 0.1875  plane waves:     197
 k-point 46 :  -0.3125 0.4375 0.1875  plane waves:     201
 k-point 47 :  -0.1875 0.4375 0.1875  plane waves:     195
 k-point 48 :  -0.4375-0.4375 0.1875  plane waves:     198
 k-point 49 :  -0.3125-0.4375 0.1875  plane waves:     199
 k-point 50 :  -0.3125-0.3125 0.1875  plane waves:     194
 k-point 51 :   0.3125 0.3125 0.3125  plane waves:     192
 k-point 52 :   0.4375 0.3125 0.3125  plane waves:     193
 k-point 53 :  -0.4375 0.3125 0.3125  plane waves:     194
 k-point 54 :  -0.3125 0.3125 0.3125  plane waves:     188
 k-point 55 :   0.4375 0.4375 0.3125  plane waves:     192
 k-point 56 :  -0.4375 0.4375 0.3125  plane waves:     193
 k-point 57 :  -0.3125 0.4375 0.3125  plane waves:     196
 k-point 58 :  -0.4375-0.4375 0.3125  plane waves:     191
 k-point 59 :   0.4375 0.4375 0.4375  plane waves:     189
 k-point 60 :  -0.4375 0.4375 0.4375  plane waves:     187

 maximum number of plane-waves:       201
 maximum index in each direction: 
   IXMAX=    4   IYMAX=    4   IZMAX=    3
   IXMIN=   -4   IYMIN=   -4   IZMIN=   -4

 WARNING: aliasing errors must be expected set NGX to  18 to avoid them
 WARNING: aliasing errors must be expected set NGY to  18 to avoid them
 WARNING: aliasing errors must be expected set NGZ to  16 to avoid them
 aliasing errors are usually negligible using standard VASP settings
 and one can safely disregard these warnings

 total amount of memory used by VASP on root node    34417. kBytes
========================================================================

   base      :      30000. kBytes
   nonl-proj :       1739. kBytes
   grid      :        771. kBytes
   one-center:         15. kBytes
   wavefun   :       1892. kBytes
 
     INWAV:  cpu time    0.00: real time    0.00
 Broyden mixing: mesh for mixing (old mesh)
   NGX =  9   NGY =  9   NGZ =  9
  (NGX  = 24   NGY  = 24   NGZ  = 24)
  gives a total of    729 points

 initial charge density was supplied:
 charge density of overlapping atoms calculated
 number of electron      10.0000000 magnetization 
 keeping initial charge density in first step


--------------------------------------------------------------------------------------------------------


 Maximum index for augmentation-charges         6339 (set IRDMAX)


--------------------------------------------------------------------------------------------------------


 First call to EWALD:  gamma=   0.753
 Maximum number of real-space cells 3x 3x 3
 Maximum number of reciprocal cells 3x 3x 3

    FEWALD:  cpu time    0.00: real time    0.00


----------------------------------------- Iteration    1(   1)  ---------------------------------------


    POTLOK:  cpu time    0.01: real time    0.01
    SETDIJ:  cpu time    0.01: real time    0.01
     EDDAV:  cpu time    0.33: real time    0.33
       DOS:  cpu time    0.00: real time    0.00
    --------------------------------------------
      LOOP:  cpu time    0.35: real time    0.35

 eigenvalue-minimisations  :  1112
 total energy-change (2. order) : 0.2642227E+02  (-0.4211607E+03)
 number of electron      10.0000000 magnetization 
 augmentation part       10.0000000 magnetization 

 Free energy of the ion-electron system (eV)
  ---------------------------------------------------
  alpha Z        PSCENC =        50.05875306
  Ewald energy   TEWEN  =      -883.95777162
  -Hartree energ DENC   =      -109.49710119
  -exchange      EXHF   =         0.00000000
  -V(xc)+E(xc)   XCENC  =       -28.66186580
  PAW double counting   =       806.73831454     -744.51602449
  entropy T*S    EENTRO =        -0.00130109
  eigenvalues    EBANDS =       126.53314173
  atomic energy  EATOM  =       809.72612850
  ---------------------------------------------------
  free energy    TOTEN  =        26.42227364 eV

  energy without entropy =       26.42357473  energy(sigma->0) =       26.42270734


--------------------------------------------------------------------------------------------------------




----------------------------------------- Iteration    1(   2)  ---------------------------------------


     EDDAV:  cpu time    0.35: real time    0.35
       DOS:  cpu time    0.00: real time    0.00
    --------------------------------------------
      LOOP:  cpu time    0.35: real time    0.36

 eigenvalue-minimisations  :  1194
 total energy-change (2. order) :-0.3140742E+02  (-0.3015134E+02)
 number of electron      10.0000000 magnetization 
 augmentation part       10.0000000 magnetization 

 Free energy of the ion-electron system (eV)
  ---------------------------------------------------
  alpha Z        PSCENC =        50.05875306
  Ewald energy   TEWEN  =      -883.95777162
  -Hartree energ DENC   =      -109.49710119
  -exchange      EXHF   =         0.00000000
  -V(xc)+E(xc)   XCENC  =       -28.66186580
  PAW double counting   =       806.73831454     -744.51602449
  entropy T*S    EENTRO =        -0.00736084
  eigenvalues    EBANDS =        95.13178104
  atomic energy  EATOM  =       809.72612850
  ---------------------------------------------------
  free energy    TOTEN  =        -4.98514679 eV

  energy without entropy =       -4.97778595  energy(sigma->0) =       -4.98269318


--------------------------------------------------------------------------------------------------------




----------------------------------------- Iteration    1(   3)  ---------------------------------------


     EDDAV:  cpu time    0.37: real time    0.37
       DOS:  cpu time    0.01: real time    0.00
    --------------------------------------------
      LOOP:  cpu time    0.37: real time    0.38

 eigenvalue-minimisations  :  1282
 total energy-change (2. order) :-0.2682832E+00  (-0.2528923E+00)
 number of electron      10.0000000 magnetization 
 augmentation part       10.0000000 magnetization 

 Free energy of the ion-electron system (eV)
  ---------------------------------------------------
  alpha Z        PSCENC =        50.05875306
  Ewald energy   TEWEN  =      -883.95777162
  -Hartree energ DENC   =      -109.49710119
  -exchange      EXHF   =         0.00000000
  -V(xc)+E(xc)   XCENC  =       -28.66186580
  PAW double counting   =       806.73831454     -744.51602449
  entropy T*S    EENTRO =        -0.00786550
  eigenvalues    EBANDS =        94.86400248
  atomic energy  EATOM  =       809.72612850
  ---------------------------------------------------
  free energy    TOTEN  =        -5.25343002 eV

  energy without entropy =       -5.24556452  energy(sigma->0) =       -5.25080818


--------------------------------------------------------------------------------------------------------




----------------------------------------- Iteration    1(   4)  ---------------------------------------


     EDDAV:  cpu time    0.36: real time    0.36
       DOS:  cpu time    0.00: real time    0.00
    --------------------------------------------
      LOOP:  cpu time    0.36: real time    0.38

 eigenvalue-minimisations  :  1267
 total energy-change (2. order) :-0.1322103E-02  (-0.1322087E-02)
 number of electron      10.0000000 magnetization 
 augmentation part       10.0000000 magnetization 

 Free energy of the ion-electron system (eV)
  ---------------------------------------------------
  alpha Z        PSCENC =        50.05875306
  Ewald energy   TEWEN  =      -883.95777162
  -Hartree energ DENC   =      -109.49710119
  -exchange      EXHF   =         0.00000000
  -V(xc)+E(xc)   XCENC  =       -28.66186580
  PAW double counting   =       806.73831454     -744.51602449
  entropy T*S    EENTRO =        -0.00786572
  eigenvalues    EBANDS =        94.86268060
  atomic energy  EATOM  =       809.72612850
  ---------------------------------------------------
  free energy    TOTEN  =        -5.25475212 eV

  energy without entropy =       -5.24688640  energy(sigma->0) =       -5.25213021


--------------------------------------------------------------------------------------------------------




----------------------------------------- Iteration    1(   5)  ---------------------------------------


     EDDAV:  cpu time    0.36: real time    0.36
       DOS:  cpu time    0.00: real time    0.00
    CHARGE:  cpu time    0.03: real time    0.03
    MIXING:  cpu time    0.00: real time    0.00
    --------------------------------------------
      LOOP:  cpu time    0.39: real time    0.41

 eigenvalue-minimisations  :  1274
 total energy-change (2. order) :-0.1284267E-04  (-0.1284147E-04)
 number of electron      10.0000022 magnetization 
 augmentation part        3.9805919 magnetization 

 Broyden mixing:
  rms(total) = 0.11200E+01    rms(broyden)= 0.11200E+01
  rms(prec ) = 0.17950E+01
  weight for this iteration     100.00

 Free energy of the ion-electron system (eV)
  ---------------------------------------------------
  alpha Z        PSCENC =        50.05875306
  Ewald energy   TEWEN  =      -883.95777162
  -Hartree energ DENC   =      -109.49710119
  -exchange      EXHF   =         0.00000000
  -V(xc)+E(xc)   XCENC  =       -28.66186580
  PAW double counting   =       806.73831454     -744.51602449
  entropy T*S    EENTRO =        -0.00786572
  eigenvalues    EBANDS =        94.86266775
  atomic energy  EATOM  =       809.72612850
  ---------------------------------------------------
  free energy    TOTEN  =        -5.25476496 eV

  energy without entropy =       -5.24689924  energy(sigma->0) =       -5.25214306


--------------------------------------------------------------------------------------------------------




----------------------------------------- Iteration    1(   6)  ---------------------------------------


    POTLOK:  cpu time    0.01: real time    0.01
    SETDIJ:  cpu time    0.01: real time    0.01
     EDDAV:  cpu time    0.32: real time    0.32
       DOS:  cpu time    0.01: real time    0.01
    CHARGE:  cpu time    0.02: real time    0.02
    MIXING:  cpu time    0.00: real time    0.00
    --------------------------------------------
      LOOP:  cpu time    0.38: real time    0.39

 eigenvalue-minimisations  :  1112
 total energy-change (2. order) : 0.2663792E+00  (-0.9341515E-01)
 number of electron      10.0000023 magnetization 
 augmentation part        4.1400138 magnetization 

 Broyden mixing:
  rms(total) = 0.56652E+00    rms(broyden)= 0.56652E+00
  rms(prec ) = 0.63464E+00
  weight for this iteration     100.00

 eigenvalues of (default mixing * dielectric matrix)
  average eigenvalue GAMMA=   1.8719
  1.8719

 Free energy of the ion-electron system (eV)
  ---------------------------------------------------
  alpha Z        PSCENC =        50.05875306
  Ewald energy   TEWEN  =      -883.95777162
  -Hartree energ DENC   =      -101.73322785
  -exchange      EXHF   =         0.00000000
  -V(xc)+E(xc)   XCENC  =       -28.86726730
  PAW double counting   =       907.35663585     -847.03938066
  entropy T*S    EENTRO =        -0.00373637
  eigenvalues    EBANDS =        89.47148058
  atomic energy  EATOM  =       809.72612850
  ---------------------------------------------------
  free energy    TOTEN  =        -4.98838581 eV

  energy without entropy =       -4.98464943  energy(sigma->0) =       -4.98714035


--------------------------------------------------------------------------------------------------------




----------------------------------------- Iteration    1(   7)  ---------------------------------------


    POTLOK:  cpu time    0.01: real time    0.01
    SETDIJ:  cpu time    0.01: real time    0.01
     EDDAV:  cpu time    0.40: real time    0.40
       DOS:  cpu time    0.00: real time    0.01
    CHARGE:  cpu time    0.02: real time    0.02
    MIXING:  cpu time    0.00: real time    0.00
    --------------------------------------------
      LOOP:  cpu time    0.45: real time    0.47

 eigenvalue-minimisations  :  1413
 total energy-change (2. order) : 0.2316311E-01  (-0.3135690E-02)
 number of electron      10.0000023 magnetization 
 augmentation part        4.1703367 magnetization 

 Broyden mixing:
  rms(total) = 0.25020E+00    rms(broyden)= 0.25020E+00
  rms(prec ) = 0.25377E+00
  weight for this iteration     100.00

 eigenvalues of (default mixing * dielectric matrix)
  average eigenvalue GAMMA=   1.8802
  1.1499  2.6106

 Free energy of the ion-electron system (eV)
  ---------------------------------------------------
  alpha Z        PSCENC =        50.05875306
  Ewald energy   TEWEN  =      -883.95777162
  -Hartree energ DENC   =       -99.66008188
  -exchange      EXHF   =         0.00000000
  -V(xc)+E(xc)   XCENC  =       -28.91894882
  PAW double counting   =       990.84124521     -931.67314030
  entropy T*S    EENTRO =        -0.00355788
  eigenvalues    EBANDS =        88.62215104
  atomic energy  EATOM  =       809.72612850
  ---------------------------------------------------
  free energy    TOTEN  =        -4.96522270 eV

  energy without entropy =       -4.96166482  energy(sigma->0) =       -4.96403674


--------------------------------------------------------------------------------------------------------




----------------------------------------- Iteration    1(   8)  ---------------------------------------


    POTLOK:  cpu time    0.01: real time    0.01
    SETDIJ:  cpu time    0.01: real time    0.01
     EDDAV:  cpu time    0.35: real time    0.35
       DOS:  cpu time    0.00: real time    0.01
    CHARGE:  cpu time    0.02: real time    0.02
    MIXING:  cpu time    0.00: real time    0.00
    --------------------------------------------
      LOOP:  cpu time    0.40: real time    0.43

 eigenvalue-minimisations  :  1194
 total energy-change (2. order) : 0.5107118E-02  (-0.2565875E-03)
 number of electron      10.0000023 magnetization 
 augmentation part        4.1663086 magnetization 

 Broyden mixing:
  rms(total) = 0.14623E-01    rms(broyden)= 0.14623E-01
  rms(prec ) = 0.14932E-01
  weight for this iteration     100.00

 eigenvalues of (default mixing * dielectric matrix)
  average eigenvalue GAMMA=   1.5298
  2.4978  0.9784  1.1133

 Free energy of the ion-electron system (eV)
  ---------------------------------------------------
  alpha Z        PSCENC =        50.05875306
  Ewald energy   TEWEN  =      -883.95777162
  -Hartree energ DENC   =       -99.08849170
  -exchange      EXHF   =         0.00000000
  -V(xc)+E(xc)   XCENC  =       -28.93182244
  PAW double counting   =      1063.75110061    -1005.43305115
  entropy T*S    EENTRO =        -0.00354082
  eigenvalues    EBANDS =        88.91857998
  atomic energy  EATOM  =       809.72612850
  ---------------------------------------------------
  free energy    TOTEN  =        -4.96011558 eV

  energy without entropy =       -4.95657476  energy(sigma->0) =       -4.95893531


--------------------------------------------------------------------------------------------------------




----------------------------------------- Iteration    1(   9)  ---------------------------------------


    POTLOK:  cpu time    0.01: real time    0.01
    SETDIJ:  cpu time    0.01: real time    0.01
     EDDAV:  cpu time    0.23: real time    0.23
       DOS:  cpu time    0.00: real time    0.01
    --------------------------------------------
      LOOP:  cpu time    0.26: real time    0.27

 eigenvalue-minimisations  :   681
 total energy-change (2. order) : 0.3161776E-04  (-0.7398574E-05)
 number of electron      10.0000023 magnetization 
 augmentation part        4.1663086 magnetization 

 Free energy of the ion-electron system (eV)
  ---------------------------------------------------
  alpha Z        PSCENC =        50.05875306
  Ewald energy   TEWEN  =      -883.95777162
  -Hartree energ DENC   =       -99.09899093
  -exchange      EXHF   =         0.00000000
  -V(xc)+E(xc)   XCENC  =       -28.93154561
  PAW double counting   =      1060.22572973    -1001.84070212
  entropy T*S    EENTRO =        -0.00352632
  eigenvalues    EBANDS =        88.86184136
  atomic energy  EATOM  =       809.72612850
  ---------------------------------------------------
  free energy    TOTEN  =        -4.96008396 eV

  energy without entropy =       -4.95655764  energy(sigma->0) =       -4.95890852


--------------------------------------------------------------------------------------------------------




 average (electrostatic) potential at core
  the test charge radii are     1.1199
  (the norm of the test charge is              1.0000)
       1 -68.5954
 
 
 
 E-fermi :  12.0784     XC(G=0): -13.9789     alpha+bet :-18.9133


 k-point     1 :       0.0625    0.0625    0.0625
  band No.  band energies     occupation 
      1       4.0539      2.00000
      2       8.5341      2.00000
      3       8.6571      2.00000
      4       8.6571      2.00000
      5      10.5443      2.00000
      6      10.5443      2.00000
      7      29.4245      0.00000
      8      33.7801      0.00000
      9      34.9363      0.00000

 k-point     2 :       0.1875    0.0625    0.0625
  band No.  band energies     occupation 
      1       4.8356      2.00000
      2       8.2368      2.00000
      3       8.9120      2.00000
      4       8.9433      2.00000
      5      10.2574      2.00000
      6      10.6815      2.00000
      7      30.2281      0.00000
      8      31.2737      0.00000
      9      34.8720      0.00000

 k-point     3 :       0.3125    0.0625    0.0625
  band No.  band energies     occupation 
      1       5.9307      2.00000
      2       8.5387      2.00000
      3       8.9504      2.00000
      4       9.0016      2.00000
      5      10.5446      2.00000
      6      11.3527      2.00000
      7      26.9645      0.00000
      8      30.5051      0.00000
      9      35.4944      0.00000

 k-point     4 :       0.4375    0.0625    0.0625
  band No.  band energies     occupation 
      1       5.9163      2.00000
      2       8.5676      2.00000
      3       8.7111      2.00000
      4      10.5490      2.00000
      5      11.5167      2.00052
      6      12.7246     -0.00005
      7      22.4922      0.00000
      8      29.2139      0.00000
      9      33.9509      0.00000

 k-point     5 :      -0.4375    0.0625    0.0625
  band No.  band energies     occupation 
      1       5.8184      2.00000
      2       8.4310      2.00000
      3       8.6345      2.00000
      4      11.1473      2.00000
      5      12.0623      1.13598
      6      13.6887      0.00000
      7      20.5437      0.00000
      8      28.7936      0.00000
      9      33.9249      0.00000

 k-point     6 :      -0.3125    0.0625    0.0625
  band No.  band energies     occupation 
      1       5.9720      2.00000
      2       8.6314      2.00000
      3       8.8461      2.00000
      4       9.7712      2.00000
      5      11.6827      2.01712
      6      11.8310      2.07087
      7      23.9166      0.00000
      8      29.6481      0.00000
      9      34.7062      0.00000

 k-point     7 :      -0.1875    0.0625    0.0625
  band No.  band energies     occupation 
      1       5.6654      2.00000
      2       8.2101      2.00000
      3       8.9907      2.00000
      4       9.0665      2.00000
      5      10.4610      2.00000
      6      10.9251      2.00000
      7      28.4296      0.00000
      8      30.8338      0.00000
      9      35.5583      0.00000

 k-point     8 :      -0.0625    0.0625    0.0625
  band No.  band energies     occupation 
      1       4.4620      2.00000
      2       8.3117      2.00000
      3       8.8393      2.00000
      4       8.8467      2.00000
      5      10.2980      2.00000
      6      10.6585      2.00000
      7      29.9326      0.00000
      8      32.5916      0.00000
      9      34.8451      0.00000

 k-point     9 :       0.1875    0.1875    0.0625
  band No.  band energies     occupation 
      1       5.2015      2.00000
      2       7.8907      2.00000
      3       9.1788      2.00000
      4       9.2157      2.00000
      5       9.9724      2.00000
      6      10.8731      2.00000
      7      30.7753      0.00000
      8      31.5728      0.00000
      9      34.1895      0.00000

 k-point    10 :       0.3125    0.1875    0.0625
  band No.  band energies     occupation 
      1       6.2677      2.00000
      2       7.5335      2.00000
      3       8.9151      2.00000
      4       9.6711      2.00000
      5      10.4338      2.00000
      6      11.5129      2.00047
      7      28.8932      0.00000
      8      30.8375      0.00000
      9      33.4118      0.00000

 k-point    11 :       0.4375    0.1875    0.0625
  band No.  band energies     occupation 
      1       6.4824      2.00000
      2       8.1486      2.00000
      3       8.6415      2.00000
      4       9.4893      2.00000
      5      11.6278      2.00650
      6      13.4052      0.00000
      7      24.2181      0.00000
      8      29.8288      0.00000
      9      31.6789      0.00000

 k-point    12 :      -0.4375    0.1875    0.0625
  band No.  band energies     occupation 
      1       6.3823      2.00000
      2       7.9417      2.00000
      3       9.2034      2.00000
      4       9.6297      2.00000
      5      11.9734      1.76698
      6      15.9582      0.00000
      7      20.4843      0.00000
      8      29.0657      0.00000
      9      31.2509      0.00000

 k-point    13 :      -0.3125    0.1875    0.0625
  band No.  band energies     occupation 
      1       6.5392      2.00000
      2       8.1222      2.00000
      3       9.0471      2.00000
      4       9.3898      2.00000
      5      11.3689      2.00001
      6      14.5575      0.00000
      7      22.7998      0.00000
      8      28.9749      0.00000
      9      31.5383      0.00000

 k-point    14 :      -0.1875    0.1875    0.0625
  band No.  band energies     occupation 
      1       6.6380      2.00000
      2       7.7966      2.00000
      3       8.6643      2.00000
      4       9.6090      2.00000
      5      10.2399      2.00000
      6      12.3764     -0.05618
      7      27.3915      0.00000
      8      29.6367      0.00000
      9      33.3933      0.00000

 k-point    15 :      -0.0625    0.1875    0.0625
  band No.  band energies     occupation 
      1       5.5095      2.00000
      2       7.9446      2.00000
      3       9.0551      2.00000
      4       9.2109      2.00000
      5      10.0965      2.00000
      6      11.0012      2.00000
      7      29.9034      0.00000
      8      30.8616      0.00000
      9      34.4712      0.00000

 k-point    16 :       0.3125    0.3125    0.0625
  band No.  band energies     occupation 
      1       6.3823      2.00000
      2       6.8687      2.00000
      3       9.7337      2.00000
      4      10.3864      2.00000
      5      11.0916      2.00000
      6      11.4917      2.00027
      7      29.3407      0.00000
      8      30.6015      0.00000
      9      30.9062      0.00000

 k-point    17 :       0.4375    0.3125    0.0625
  band No.  band energies     occupation 
      1       6.4030      2.00000
      2       6.6972      2.00000
      3       9.6138      2.00000
      4      10.8969      2.00000
      5      11.7253      2.03159
      6      13.6830      0.00000
      7      26.3435      0.00000
      8      28.3467      0.00000
      9      28.8865      0.00000

 k-point    18 :      -0.4375    0.3125    0.0625
  band No.  band energies     occupation 
      1       6.5005      2.00000
      2       7.2094      2.00000
      3       9.1454      2.00000
      4      10.4399      2.00000
      5      12.0700      1.07151
      6      17.4303      0.00000
      7      21.7630      0.00000
      8      26.7359      0.00000
      9      28.7916      0.00000

 k-point    19 :      -0.3125    0.3125    0.0625
  band No.  band energies     occupation 
      1       7.0321      2.00000
      2       7.7340      2.00000
      3       8.4621      2.00000
      4      10.1175      2.00000
      5      11.4282      2.00004
      6      17.6781      0.00000
      7      22.3191      0.00000
      8      25.1580      0.00000
      9      30.5582      0.00000

 k-point    20 :      -0.1875    0.3125    0.0625
  band No.  band energies     occupation 
      1       7.2113      2.00000
      2       7.9476      2.00000
      3       8.1997      2.00000
      4       9.8319      2.00000
      5      10.7667      2.00000
      6      14.7318      0.00000
      7      24.8152      0.00000
      8      27.1425      0.00000
      9      31.6781      0.00000

 k-point    21 :      -0.0625    0.3125    0.0625
  band No.  band energies     occupation 
      1       6.2340      2.00000
      2       8.6015      2.00000
      3       8.7124      2.00000
      4       9.1493      2.00000
      5      10.9674      2.00000
      6      12.1517      0.42318
      7      25.5899      0.00000
      8      30.1829      0.00000
      9      33.6819      0.00000

 k-point    22 :       0.4375    0.4375    0.0625
  band No.  band energies     occupation 
      1       5.8137      2.00000
      2       6.1055      2.00000
      3      11.4898      2.00026
      4      11.6152      2.00506
      5      12.1357      0.53665
      6      14.2146      0.00000
      7      26.2119      0.00000
      8      26.5022      0.00000
      9      27.1286      0.00000

 k-point    23 :      -0.4375    0.4375    0.0625
  band No.  band energies     occupation 
      1       5.8580      2.00000
      2       6.2145      2.00000
      3      10.8609      2.00000
      4      11.5714      2.00198
      5      12.3455     -0.06767
      6      17.0252      0.00000
      7      24.1089      0.00000
      8      24.7443      0.00000
      9      26.3443      0.00000

 k-point    24 :      -0.3125    0.4375    0.0625
  band No.  band energies     occupation 
      1       6.3829      2.00000
      2       7.0528      2.00000
      3       9.4074      2.00000
      4      10.7708      2.00000
      5      12.0053      1.57524
      6      19.5093      0.00000
      7      21.0741      0.00000
      8      24.5201      0.00000
      9      28.3578      0.00000

 k-point    25 :      -0.1875    0.4375    0.0625
  band No.  band energies     occupation 
      1       6.7908      2.00000
      2       7.6645      2.00000
      3       9.0206      2.00000
      4       9.6786      2.00000
      5      11.7556      2.04483
      6      17.3568      0.00000
      7      20.6314      0.00000
      8      27.5663      0.00000
      9      30.5749      0.00000

 k-point    26 :      -0.0625    0.4375    0.0625
  band No.  band energies     occupation 
      1       6.0632      2.00000
      2       8.2975      2.00000
      3       8.8602      2.00000
      4      10.2167      2.00000
      5      11.8803      2.04826
      6      14.1650      0.00000
      7      21.3078      0.00000
      8      29.1523      0.00000
      9      32.7059      0.00000

 k-point    27 :      -0.4375   -0.4375    0.0625
  band No.  band energies     occupation 
      1       5.5979      2.00000
      2       5.9379      2.00000
      3      11.8942      2.02971
      4      11.9767      1.74974
      5      12.3730     -0.05769
      6      15.6766      0.00000
      7      24.4619      0.00000
      8      25.5569      0.00000
      9      26.2790      0.00000

 k-point    28 :      -0.3125   -0.4375    0.0625
  band No.  band energies     occupation 
      1       6.0716      2.00000
      2       6.3759      2.00000
      3      10.3386      2.00000
      4      11.4072      2.00002
      5      12.0940      0.86819
      6      15.4729      0.00000
      7      25.0630      0.00000
      8      26.4534      0.00000
      9      27.0690      0.00000

 k-point    29 :      -0.1875   -0.4375    0.0625
  band No.  band energies     occupation 
      1       6.5771      2.00000
      2       7.5870      2.00000
      3       8.8268      2.00000
      4       9.9567      2.00000
      5      11.9945      1.64569
      6      15.2412      0.00000
      7      22.8826      0.00000
      8      28.9347      0.00000
      9      29.7772      0.00000

 k-point    30 :      -0.3125   -0.3125    0.0625
  band No.  band energies     occupation 
      1       6.1599      2.00000
      2       6.4272      2.00000
      3      10.6509      2.00000
      4      11.0600      2.00000
      5      11.8240      2.07027
      6      12.4678     -0.01891
      7      27.7748      0.00000
      8      28.6549      0.00000
      9      28.7999      0.00000

 k-point    31 :      -0.1875   -0.3125    0.0625
  band No.  band energies     occupation 
      1       6.6156      2.00000
      2       7.1117      2.00000
      3       8.9913      2.00000
      4      10.2549      2.00000
      5      11.1503      2.00000
      6      12.3122     -0.06989
      7      27.7194      0.00000
      8      29.8275      0.00000
      9      31.2502      0.00000

 k-point    32 :      -0.1875   -0.1875    0.0625
  band No.  band energies     occupation 
      1       6.0233      2.00000
      2       7.3790      2.00000
      3       9.3258      2.00000
      4       9.7437      2.00000
      5      10.1978      2.00000
      6      11.1621      2.00000
      7      30.5056      0.00000
      8      31.8138      0.00000
      9      32.6271      0.00000

 k-point    33 :       0.1875    0.1875    0.1875
  band No.  band energies     occupation 
      1       5.1388      2.00000
      2       8.2954      2.00000
      3       8.9420      2.00000
      4       8.9420      2.00000
      5      10.5112      2.00000
      6      10.5112      2.00000
      7      29.6633      0.00000
      8      30.6968      0.00000
      9      36.4633      0.00000

 k-point    34 :       0.3125    0.1875    0.1875
  band No.  band energies     occupation 
      1       6.0468      2.00000
      2       7.9345      2.00000
      3       8.9674      2.00000
      4       9.3226      2.00000
      5       9.9860      2.00000
      6      11.5495      2.00118
      7      28.5881      0.00000
      8      30.4250      0.00000
      9      34.6733      0.00000

 k-point    35 :       0.4375    0.1875    0.1875
  band No.  band energies     occupation 
      1       6.9663      2.00000
      2       7.9890      2.00000
      3       8.5595      2.00000
      4       9.5280      2.00000
      5      10.2955      2.00000
      6      13.4467      0.00000
      7      26.0598      0.00000
      8      28.3854      0.00000
      9      32.7621      0.00000

 k-point    36 :      -0.4375    0.1875    0.1875
  band No.  band energies     occupation 
      1       6.6352      2.00000
      2       7.9487      2.00000
      3       9.3125      2.00000
      4       9.3314      2.00000
      5      11.4613      2.00011
      6      15.8559      0.00000
      7      21.5848      0.00000
      8      28.1605      0.00000
      9      31.7490      0.00000

 k-point    37 :      -0.3125    0.1875    0.1875
  band No.  band energies     occupation 
      1       6.4358      2.00000
      2       7.8622      2.00000
      3       9.2114      2.00000
      4       9.4461      2.00000
      5      12.1212      0.64712
      6      15.6228      0.00000
      7      21.3360      0.00000
      8      28.9717      0.00000
      9      31.7099      0.00000

 k-point    38 :      -0.1875    0.1875    0.1875
  band No.  band energies     occupation 
      1       6.4943      2.00000
      2       7.6134      2.00000
      3       8.8035      2.00000
      4       9.7317      2.00000
      5      11.8234      2.07018
      6      12.4419     -0.02755
      7      25.8802      0.00000
      8      30.4889      0.00000
      9      31.5802      0.00000

 k-point    39 :       0.3125    0.3125    0.1875
  band No.  band energies     occupation 
      1       6.2217      2.00000
      2       7.9881      2.00000
      3       8.7954      2.00000
      4       9.3280      2.00000
      5      11.1097      2.00000
      6      11.3948      2.00001
      7      27.2033      0.00000
      8      30.9198      0.00000
      9      33.6459      0.00000

 k-point    40 :       0.4375    0.3125    0.1875
  band No.  band energies     occupation 
      1       6.9579      2.00000
      2       7.6024      2.00000
      3       8.3324      2.00000
      4      10.1055      2.00000
      5      10.8698      2.00000
      6      13.4938      0.00000
      7      26.1717      0.00000
      8      28.5124      0.00000
      9      31.3740      0.00000

 k-point    41 :      -0.4375    0.3125    0.1875
  band No.  band energies     occupation 
      1       7.3601      2.00000
      2       7.5214      2.00000
      3       8.0983      2.00000
      4      10.2630      2.00000
      5      11.3774      2.00001
      6      16.3595      0.00000
      7      23.6252      0.00000
      8      26.0758      0.00000
      9      29.6624      0.00000

 k-point    42 :      -0.3125    0.3125    0.1875
  band No.  band energies     occupation 
      1       6.9838      2.00000
      2       7.4078      2.00000
      3       8.6172      2.00000
      4      10.1383      2.00000
      5      11.9220      1.97070
      6      18.4391      0.00000
      7      20.6968      0.00000
      8      27.2234      0.00000
      9      28.0276      0.00000

 k-point    43 :      -0.1875    0.3125    0.1875
  band No.  band energies     occupation 
      1       6.8305      2.00000
      2       7.1959      2.00000
      3       8.6304      2.00000
      4      10.6527      2.00000
      5      11.4869      2.00024
      6      15.0367      0.00000
      7      24.9171      0.00000
      8      27.2838      0.00000
      9      29.1157      0.00000

 k-point    44 :       0.4375    0.4375    0.1875
  band No.  band energies     occupation 
      1       6.4060      2.00000
      2       7.1099      2.00000
      3       9.3175      2.00000
      4      10.2435      2.00000
      5      12.1192      0.66248
      6      14.2374      0.00000
      7      24.4830      0.00000
      8      28.8671      0.00000
      9      29.8170      0.00000

 k-point    45 :      -0.4375    0.4375    0.1875
  band No.  band energies     occupation 
      1       6.5307      2.00000
      2       6.8774      2.00000
      3       9.1663      2.00000
      4      10.9754      2.00000
      5      11.9930      1.65497
      6      16.9511      0.00000
      7      23.8211      0.00000
      8      26.1754      0.00000
      9      26.7550      0.00000

 k-point    46 :      -0.3125    0.4375    0.1875
  band No.  band energies     occupation 
      1       6.7464      2.00000
      2       7.4688      2.00000
      3       8.4342      2.00000
      4      10.4987      2.00000
      5      12.3319     -0.07038
      6      20.4358      0.00000
      7      21.9466      0.00000
      8      24.3266      0.00000
      9      25.3736      0.00000

 k-point    47 :      -0.1875    0.4375    0.1875
  band No.  band energies     occupation 
      1       7.0017      2.00000
      2       7.4797      2.00000
      3       8.2476      2.00000
      4      10.4840      2.00000
      5      11.9507      1.87306
      6      18.3626      0.00000
      7      22.5875      0.00000
      8      25.3142      0.00000
      9      27.1378      0.00000

 k-point    48 :      -0.4375   -0.4375    0.1875
  band No.  band energies     occupation 
      1       6.0183      2.00000
      2       6.5419      2.00000
      3      10.3417      2.00000
      4      11.2211      2.00000
      5      12.1460      0.46287
      6      18.0524      0.00000
      7      22.5383      0.00000
      8      24.5193      0.00000
      9      27.8931      0.00000

 k-point    49 :      -0.3125   -0.4375    0.1875
  band No.  band energies     occupation 
      1       6.3111      2.00000
      2       6.7407      2.00000
      3       9.5856      2.00000
      4      11.0026      2.00000
      5      12.3350     -0.06996
      6      18.7323      0.00000
      7      23.1464      0.00000
      8      24.4574      0.00000
      9      25.8547      0.00000

 k-point    50 :      -0.3125   -0.3125    0.1875
  band No.  band energies     occupation 
      1       6.1851      2.00000
      2       6.7257      2.00000
      3       9.9368      2.00000
      4      10.7904      2.00000
      5      12.2177      0.08268
      6      16.2841      0.00000
      7      23.2632      0.00000
      8      26.5265      0.00000
      9      28.5518      0.00000

 k-point    51 :       0.3125    0.3125    0.3125
  band No.  band energies     occupation 
      1       5.8828      2.00000
      2       8.8269      2.00000
      3       8.8269      2.00000
      4       9.4681      2.00000
      5      11.1520      2.00000
      6      11.1520      2.00000
      7      25.3689      0.00000
      8      30.0021      0.00000
      9      36.9181      0.00000

 k-point    52 :       0.4375    0.3125    0.3125
  band No.  band energies     occupation 
      1       6.3398      2.00000
      2       8.4593      2.00000
      3       9.0510      2.00000
      4       9.2428      2.00000
      5      10.9241      2.00000
      6      13.2081      0.00000
      7      24.1382      0.00000
      8      29.5288      0.00000
      9      32.7198      0.00000

 k-point    53 :      -0.4375    0.3125    0.3125
  band No.  band energies     occupation 
      1       7.1670      2.00000
      2       7.9137      2.00000
      3       8.4583      2.00000
      4       9.7934      2.00000
      5      10.9788      2.00000
      6      16.0774      0.00000
      7      23.5636      0.00000
      8      25.9580      0.00000
      9      32.2081      0.00000

 k-point    54 :      -0.3125    0.3125    0.3125
  band No.  band energies     occupation 
      1       6.6178      2.00000
      2       7.4970      2.00000
      3       8.9937      2.00000
      4      10.4008      2.00000
      5      11.6472      2.00935
      6      19.1171      0.00000
      7      20.9578      0.00000
      8      24.6858      0.00000
      9      30.6202      0.00000

 k-point    55 :       0.4375    0.4375    0.3125
  band No.  band energies     occupation 
      1       6.1812      2.00000
      2       8.2825      2.00000
      3       9.0605      2.00000
      4       9.4772      2.00000
      5      12.0317      1.38386
      6      13.5207      0.00000
      7      22.5580      0.00000
      8      29.5499      0.00000
      9      32.9523      0.00000

 k-point    56 :      -0.4375    0.4375    0.3125
  band No.  band energies     occupation 
      1       6.8057      2.00000
      2       7.6774      2.00000
      3       8.8368      2.00000
      4       9.7419      2.00000
      5      11.7674      2.05029
      6      16.3389      0.00000
      7      21.5942      0.00000
      8      28.4331      0.00000
      9      29.7291      0.00000

 k-point    57 :      -0.3125    0.4375    0.3125
  band No.  band energies     occupation 
      1       6.8826      2.00000
      2       7.5221      2.00000
      3       8.4578      2.00000
      4      10.3896      2.00000
      5      11.9510      1.87205
      6      19.6328      0.00000
      7      21.2075      0.00000
      8      24.7311      0.00000
      9      27.8104      0.00000

 k-point    58 :      -0.4375   -0.4375    0.3125
  band No.  band energies     occupation 
      1       6.6026      2.00000
      2       7.5705      2.00000
      3       9.0571      2.00000
      4       9.9438      2.00000
      5      11.9469      1.88815
      6      17.8593      0.00000
      7      20.4805      0.00000
      8      27.0019      0.00000
      9      30.9588      0.00000

 k-point    59 :       0.4375    0.4375    0.4375
  band No.  band energies     occupation 
      1       5.7416      2.00000
      2       8.5682      2.00000
      3       8.5682      2.00000
      4      11.9295      1.94891
      5      11.9295      1.94891
      6      12.1579      0.38274
      7      21.2729      0.00000
      8      28.7871      0.00000
      9      34.6887      0.00000

 k-point    60 :      -0.4375    0.4375    0.4375
  band No.  band energies     occupation 
      1       6.1316      2.00000
      2       8.1885      2.00000
      3       8.9028      2.00000
      4      10.2316      2.00000
      5      11.8850      2.04274
      6      15.0831      0.00000
      7      20.5268      0.00000
      8      29.0227      0.00000
      9      32.3582      0.00000


--------------------------------------------------------------------------------------------------------


 soft charge-density along one line, spin component           1
         0         1         2         3         4         5         6         7         8         9
x     5.8337    0.0000    0.6309    0.0000   -0.2514    0.0000    0.0111    0.0000    0.0077    0.0000
x     0.0001    0.0000    0.0000    0.0000
y     5.8337    0.0000    0.6309    0.0000   -0.2514    0.0000    0.0111    0.0000    0.0077    0.0000
y     0.0001    0.0000    0.0000    0.0000
z     5.8337    0.0000    0.6309    0.0000   -0.2514    0.0000    0.0111    0.0000    0.0077    0.0000
z     0.0001    0.0000    0.0000    0.0000
 total charge-density along one line
x    10.0000    0.0000    3.3177    0.0000    0.3275    0.0000   -0.0109    0.0000    0.0081    0.0000
x    -0.0007    0.0000    0.0004    0.0000   -0.0002    0.0000    0.0001    0.0000   -0.0001    0.0000
x     0.0000    0.0000    0.0000    0.0000    0.0000    0.0000
y    10.0000    0.0000    3.3177    0.0000    0.3275    0.0000   -0.0109    0.0000    0.0081    0.0000
y    -0.0007    0.0000    0.0004    0.0000   -0.0002    0.0000    0.0001    0.0000   -0.0001    0.0000
y     0.0000    0.0000    0.0000    0.0000    0.0000    0.0000
z    10.0000    0.0000    3.3177    0.0000    0.3275    0.0000   -0.0109    0.0000    0.0081    0.0000
z    -0.0007    0.0000    0.0004    0.0000   -0.0002    0.0000    0.0001    0.0000   -0.0001    0.0000
z     0.0000    0.0000    0.0000    0.0000    0.0000    0.0000
 
 pseudopotential strength for first ion, spin component:           1
 -1.159   0.000   0.000  -0.015   0.000  -1.451   0.000   0.000
  0.000  -1.148   0.000   0.000  -0.015   0.000  -1.441   0.000
  0.000   0.000  -1.170   0.000   0.000   0.000   0.000  -1.462
 -0.015   0.000   0.000  -1.148   0.000  -0.015   0.000   0.000
  0.000  -0.015   0.000   0.000  -1.159   0.000  -0.015   0.000
 -1.451   0.000   0.000  -0.015   0.000  -1.708   0.000   0.000
  0.000  -1.441   0.000   0.000  -0.015   0.000  -1.698   0.000
  0.000   0.000  -1.462   0.000   0.000   0.000   0.000  -1.718
 -0.015   0.000   0.000  -1.441   0.000  -0.014   0.000   0.000
  0.000  -0.015   0.000   0.000  -1.451   0.000  -0.014   0.000
  0.000   0.000   0.000   0.000   0.000   0.000   0.000   0.000
  0.000   0.000   0.000   0.000   0.000   0.000   0.000   0.000
  0.000   0.000   0.000   0.000   0.000   0.000   0.000   0.000
  0.000   0.000   0.000   0.000   0.000   0.000   0.000   0.000
  0.000   0.000   0.000   0.000   0.000   0.000   0.000   0.000
  0.000   0.000   0.000   0.000   0.000   0.000   0.000   0.000
  0.000   0.000   0.000   0.000   0.000   0.000   0.000   0.000
  0.000   0.000   0.000   0.000   0.000   0.000   0.000   0.000
 total augmentation occupancy for first ion, spin component:           1
  3.955   0.000   0.000  -0.250   0.000  -2.811   0.000   0.000   0.023   0.000   0.000   0.000   0.000   0.000   0.000   0.000
  0.000   4.132   0.000   0.000  -0.250   0.000  -2.827   0.000   0.000   0.023   0.000   0.000   0.000   0.000   0.000   0.000
  0.000   0.000   3.778   0.000   0.000   0.000   0.000  -2.795   0.000   0.000   0.000   0.000   0.000   0.000   0.000   0.000
 -0.250   0.000   0.000   4.132   0.000   0.023   0.000   0.000  -2.827   0.000   0.000   0.000   0.000   0.000   0.000   0.000
  0.000  -0.250   0.000   0.000   3.955   0.000   0.023   0.000   0.000  -2.811   0.000   0.000   0.000   0.000   0.000   0.000
 -2.811   0.000   0.000   0.023   0.000   3.459   0.000   0.000   0.155   0.000   0.000   0.000   0.000   0.000   0.000   0.000
  0.000  -2.827   0.000   0.000   0.023   0.000   3.349   0.000   0.000   0.155   0.000   0.000   0.000   0.000   0.000   0.000
  0.000   0.000  -2.795   0.000   0.000   0.000   0.000   3.568   0.000   0.000   0.000   0.000   0.000   0.000   0.000   0.000
  0.023   0.000   0.000  -2.827   0.000   0.155   0.000   0.000   3.349   0.000   0.000   0.000   0.000   0.000   0.000   0.000
  0.000   0.023   0.000   0.000  -2.811   0.000   0.155   0.000   0.000   3.459   0.000   0.000   0.000   0.000   0.000   0.000
  0.000   0.000   0.000   0.000   0.000   0.000   0.000   0.000   0.000   0.000   2.486  -0.414   0.000   0.000   0.000   0.000
  0.000   0.000   0.000   0.000   0.000   0.000   0.000   0.000   0.000   0.000  -0.414   0.073   0.000   0.000   0.000   0.000
  0.000   0.000   0.000   0.000   0.000   0.000   0.000   0.000   0.000   0.000   0.000   0.000   0.327   0.000   0.000  -0.018
  0.000   0.000   0.000   0.000   0.000   0.000   0.000   0.000   0.000   0.000   0.000   0.000   0.000   0.327   0.000   0.000
  0.000   0.000   0.000   0.000   0.000   0.000   0.000   0.000   0.000   0.000   0.000   0.000   0.000   0.000   0.327   0.000
  0.000   0.000   0.000   0.000   0.000   0.000   0.000   0.000   0.000   0.000   0.000   0.000  -0.018   0.000   0.000   0.001
  0.000   0.000   0.000   0.000   0.000   0.000   0.000   0.000   0.000   0.000   0.000   0.000   0.000  -0.018   0.000   0.000
  0.000   0.000   0.000   0.000   0.000   0.000   0.000   0.000   0.000   0.000   0.000   0.000   0.000   0.000  -0.018   0.000


------------------------ aborting loop because EDIFF is reached ----------------------------------------


    CHARGE:  cpu time    0.02: real time    0.03
    FORLOC:  cpu time    0.00: real time    0.00
    FORNL :  cpu time    0.06: real time    0.06
    STRESS:  cpu time    0.19: real time    0.20
    FORCOR:  cpu time    0.01: real time    0.01
    FORHAR:  cpu time    0.00: real time    0.01
    MIXING:  cpu time    0.00: real time    0.00
    OFIELD:  cpu time    0.00: real time    0.00

  FORCE on cell =-STRESS in cart. coord.  units (eV):
  Direction    XX          YY          ZZ          XY          YZ          ZX
  --------------------------------------------------------------------------------------
  Alpha Z    50.05875    50.05875    50.05875
  Ewald    -294.65260  -294.65260  -294.65260     0.00000     0.00000     0.00000
  Hartree    33.04368    33.04368    33.04368     0.00000     0.00000     0.00000
  E(xc)     -53.16728   -53.16730   -53.16730     0.00001     0.00000     0.00001
  Local      55.26540    55.26517    55.26512     0.00020     0.00008     0.00014
  n-local    -1.49529     0.46196     4.92300     0.38203    -0.40727     2.94966
  augment    73.86646    73.86663    73.86667    -0.00015    -0.00006    -0.00010
  Kinetic   136.07326   136.45863   140.31395     0.50934    -0.84879     2.42504
  Fock        0.00000     0.00000     0.00000     0.00000     0.00000     0.00000
  -------------------------------------------------------------------------------------
  Total       3.32620     3.32620     3.32620     0.00000     0.00000     0.00000
  in kB     409.31353   409.31353   409.31353     0.00000     0.00000     0.00000
  external pressure =      409.31 kB  Pullay stress =        0.00 kB


 VOLUME and BASIS-vectors are now :
 -----------------------------------------------------------------------------
  energy-cutoff  :      350.00
  volume of cell :       13.02
      direct lattice vectors                 reciprocal lattice vectors
     2.640619564  0.000000000  0.000000000     0.378699004 -0.218641972 -0.154603221
     1.320309782  2.286843624  0.000000000     0.000000000  0.437283944 -0.154603221
     1.320309782  0.762281208  2.156056845     0.000000000  0.000000000  0.463809664

  length of vectors
     2.640619564  2.640619564  2.640619564     0.463809664  0.463809664  0.463809664


 FORCES acting on ions
    electron-ion (+dipol)            ewald-force                    non-local-force                 convergence-correction
 -----------------------------------------------------------------------------------------------
   -.615E-13 -.143E-13 -.537E-16   0.236E-15 -.498E-15 -.119E-14   0.794E-22 0.000E+00 0.000E+00   -.188E-13 -.235E-13 -.307E-13
 -----------------------------------------------------------------------------------------------
   -.615E-13 -.143E-13 -.537E-16   0.236E-15 -.498E-15 -.119E-14   0.794E-22 0.000E+00 0.000E+00   -.188E-13 -.235E-13 -.307E-13
 
 
 POSITION                                       TOTAL-FORCE (eV/Angst)
 -----------------------------------------------------------------------------------
      0.00000      0.00000      0.00000         0.000000      0.000000      0.000000
 -----------------------------------------------------------------------------------
    total drift:                                0.000000      0.000000      0.000000


--------------------------------------------------------------------------------------------------------



  FREE ENERGIE OF THE ION-ELECTRON SYSTEM (eV)
  ---------------------------------------------------
  free  energy   TOTEN  =        -4.96008396 eV

  energy  without entropy=       -4.95655764  energy(sigma->0) =       -4.95890852
 


--------------------------------------------------------------------------------------------------------


    POTLOK:  cpu time    0.02: real time    0.02


--------------------------------------------------------------------------------------------------------


 stress matrix after NEB project (eV)
      3.32620      0.00000      0.00000
      0.00000      3.32620      0.00000
      0.00000      0.00000      3.32620
  FORCES: max atom, RMS     0.000000    0.000000
  FORCE total and by dimension    0.000000    0.000000
  Stress total and by dimension    5.761143    3.326197


--------------------------------------------------------------------------------------------------------


  
 reached required accuracy - stopping structural energy minimisation
 writing wavefunctions
     LOOP+:  cpu time    3.70: real time    3.93
    4ORBIT:  cpu time    0.00: real time    0.00

 total amount of memory used by VASP on root node    34417. kBytes
========================================================================

   base      :      30000. kBytes
   nonl-proj :       1739. kBytes
   grid      :        771. kBytes
   one-center:         15. kBytes
   wavefun   :       1892. kBytes
 
  
  
 General timing and accounting informations for this job:
 ========================================================
  
                  Total CPU time used (sec):        4.091
                            User time (sec):        3.985
                          System time (sec):        0.106
                         Elapsed time (sec):        4.476
  
                   Maximum memory used (kb):           0.
                   Average memory used (kb):           0.
  
                          Minor page faults:         5031
                          Major page faults:            0
                 Voluntary context switches:         3632
