<?xml version="1.0" encoding="ISO-8859-1"?>
<modeling>
 <generator>
  <i name="program" type="string">vasp </i>
  <i name="version" type="string">5.3.5  </i>
  <i name="subversion" type="string">31Mar14 (build Jan 09 2015 16:57:47) complex                          serial </i>
  <i name="platform" type="string">LinuxIFC </i>
  <i name="date" type="string">2015 03 24 </i>
  <i name="time" type="string">14:25:57 </i>
 </generator>
 <incar>
  <i type="string" name="PREC">normal</i>
  <i type="int" name="IBRION">     2</i>
  <i type="int" name="NSW">    30</i>
  <i type="int" name="ISIF">     2</i>
  <i name="ENCUT">    350.00000000</i>
 </incar>
 <kpoints>
  <generation param="Monkhorst-Pack">
   <v type="int" name="divisions">       8        8        8 </v>
   <v name="usershift">      0.00000000       0.00000000       0.00000000 </v>
   <v name="genvec1">      0.12500000       0.00000000       0.00000000 </v>
   <v name="genvec2">      0.00000000       0.12500000       0.00000000 </v>
   <v name="genvec3">      0.00000000       0.00000000       0.12500000 </v>
   <v name="shift">      0.50000000       0.50000000       0.50000000 </v>
  </generation>
  <varray name="kpointlist" >
   <v>       0.06250000       0.06250000       0.06250000 </v>
   <v>       0.18750000       0.06250000       0.06250000 </v>
   <v>       0.31250000       0.06250000       0.06250000 </v>
   <v>       0.43750000       0.06250000       0.06250000 </v>
   <v>      -0.43750000       0.06250000       0.06250000 </v>
   <v>      -0.31250000       0.06250000       0.06250000 </v>
   <v>      -0.18750000       0.06250000       0.06250000 </v>
   <v>      -0.06250000       0.06250000       0.06250000 </v>
   <v>       0.18750000       0.18750000       0.06250000 </v>
   <v>       0.31250000       0.18750000       0.06250000 </v>
   <v>       0.43750000       0.18750000       0.06250000 </v>
   <v>      -0.43750000       0.18750000       0.06250000 </v>
   <v>      -0.31250000       0.18750000       0.06250000 </v>
   <v>      -0.18750000       0.18750000       0.06250000 </v>
   <v>      -0.06250000       0.18750000       0.06250000 </v>
   <v>       0.31250000       0.31250000       0.06250000 </v>
   <v>       0.43750000       0.31250000       0.06250000 </v>
   <v>      -0.43750000       0.31250000       0.06250000 </v>
   <v>      -0.31250000       0.31250000       0.06250000 </v>
   <v>      -0.18750000       0.31250000       0.06250000 </v>
   <v>      -0.06250000       0.31250000       0.06250000 </v>
   <v>       0.43750000       0.43750000       0.06250000 </v>
   <v>      -0.43750000       0.43750000       0.06250000 </v>
   <v>      -0.31250000       0.43750000       0.06250000 </v>
   <v>      -0.18750000       0.43750000       0.06250000 </v>
   <v>      -0.06250000       0.43750000       0.06250000 </v>
   <v>      -0.43750000      -0.43750000       0.06250000 </v>
   <v>      -0.31250000      -0.43750000       0.06250000 </v>
   <v>      -0.18750000      -0.43750000       0.06250000 </v>
   <v>      -0.31250000      -0.31250000       0.06250000 </v>
   <v>      -0.18750000      -0.31250000       0.06250000 </v>
   <v>      -0.18750000      -0.18750000       0.06250000 </v>
   <v>       0.18750000       0.18750000       0.18750000 </v>
   <v>       0.31250000       0.18750000       0.18750000 </v>
   <v>       0.43750000       0.18750000       0.18750000 </v>
   <v>      -0.43750000       0.18750000       0.18750000 </v>
   <v>      -0.31250000       0.18750000       0.18750000 </v>
   <v>      -0.18750000       0.18750000       0.18750000 </v>
   <v>       0.31250000       0.31250000       0.18750000 </v>
   <v>       0.43750000       0.31250000       0.18750000 </v>
   <v>      -0.43750000       0.31250000       0.18750000 </v>
   <v>      -0.31250000       0.31250000       0.18750000 </v>
   <v>      -0.18750000       0.31250000       0.18750000 </v>
   <v>       0.43750000       0.43750000       0.18750000 </v>
   <v>      -0.43750000       0.43750000       0.18750000 </v>
   <v>      -0.31250000       0.43750000       0.18750000 </v>
   <v>      -0.18750000       0.43750000       0.18750000 </v>
   <v>      -0.43750000      -0.43750000       0.18750000 </v>
   <v>      -0.31250000      -0.43750000       0.18750000 </v>
   <v>      -0.31250000      -0.31250000       0.18750000 </v>
   <v>       0.31250000       0.31250000       0.31250000 </v>
   <v>       0.43750000       0.31250000       0.31250000 </v>
   <v>      -0.43750000       0.31250000       0.31250000 </v>
   <v>      -0.31250000       0.31250000       0.31250000 </v>
   <v>       0.43750000       0.43750000       0.31250000 </v>
   <v>      -0.43750000       0.43750000       0.31250000 </v>
   <v>      -0.31250000       0.43750000       0.31250000 </v>
   <v>      -0.43750000      -0.43750000       0.31250000 </v>
   <v>       0.43750000       0.43750000       0.43750000 </v>
   <v>      -0.43750000       0.43750000       0.43750000 </v>
  </varray>
  <varray name="weights" >
   <v>       0.00390625 </v>
   <v>       0.01171875 </v>
   <v>       0.01171875 </v>
   <v>       0.01171875 </v>
   <v>       0.01171875 </v>
   <v>       0.01171875 </v>
   <v>       0.01171875 </v>
   <v>       0.01171875 </v>
   <v>       0.01171875 </v>
   <v>       0.02343750 </v>
   <v>       0.02343750 </v>
   <v>       0.02343750 </v>
   <v>       0.02343750 </v>
   <v>       0.02343750 </v>
   <v>       0.02343750 </v>
   <v>       0.01171875 </v>
   <v>       0.02343750 </v>
   <v>       0.02343750 </v>
   <v>       0.02343750 </v>
   <v>       0.02343750 </v>
   <v>       0.02343750 </v>
   <v>       0.01171875 </v>
   <v>       0.02343750 </v>
   <v>       0.02343750 </v>
   <v>       0.02343750 </v>
   <v>       0.02343750 </v>
   <v>       0.01171875 </v>
   <v>       0.02343750 </v>
   <v>       0.02343750 </v>
   <v>       0.01171875 </v>
   <v>       0.02343750 </v>
   <v>       0.01171875 </v>
   <v>       0.00390625 </v>
   <v>       0.01171875 </v>
   <v>       0.01171875 </v>
   <v>       0.01171875 </v>
   <v>       0.01171875 </v>
   <v>       0.01171875 </v>
   <v>       0.01171875 </v>
   <v>       0.02343750 </v>
   <v>       0.02343750 </v>
   <v>       0.02343750 </v>
   <v>       0.02343750 </v>
   <v>       0.01171875 </v>
   <v>       0.02343750 </v>
   <v>       0.02343750 </v>
   <v>       0.02343750 </v>
   <v>       0.01171875 </v>
   <v>       0.02343750 </v>
   <v>       0.01171875 </v>
   <v>       0.00390625 </v>
   <v>       0.01171875 </v>
   <v>       0.01171875 </v>
   <v>       0.01171875 </v>
   <v>       0.01171875 </v>
   <v>       0.02343750 </v>
   <v>       0.02343750 </v>
   <v>       0.01171875 </v>
   <v>       0.00390625 </v>
   <v>       0.01171875 </v>
  </varray>
 </kpoints>
 <parameters>
  <separator name="general" >
   <i type="string" name="SYSTEM">unknown system</i>
   <i type="logical" name="LCOMPAT"> F  </i>
  </separator>
  <separator name="electronic" >
   <i type="string" name="PREC">normal</i>
   <i name="ENMAX">    350.00000000</i>
   <i name="ENAUG">    416.23000000</i>
   <i name="EDIFF">      0.00010000</i>
   <i type="int" name="IALGO">    38</i>
   <i type="int" name="IWAVPR">    11</i>
   <i type="int" name="NBANDS">     9</i>
   <i name="NELECT">     10.00000000</i>
   <i type="int" name="TURBO">     0</i>
   <i type="int" name="IRESTART">     0</i>
   <i type="int" name="NREBOOT">     0</i>
   <i type="int" name="NMIN">     0</i>
   <i name="EREF">      0.00000000</i>
   <separator name="electronic smearing" >
    <i type="int" name="ISMEAR">     1</i>
    <i name="SIGMA">      0.20000000</i>
    <i name="KSPACING">      0.50000000</i>
    <i type="logical" name="KGAMMA"> T  </i>
   </separator>
   <separator name="electronic projectors" >
    <i type="logical" name="LREAL"> F  </i>
    <v name="ROPT">      0.00000000</v>
    <i type="int" name="LMAXPAW">  -100</i>
    <i type="int" name="LMAXMIX">     2</i>
    <i type="logical" name="NLSPLINE"> F  </i>
   </separator>
   <separator name="electronic startup" >
    <i type="int" name="ISTART">     0</i>
    <i type="int" name="ICHARG">     2</i>
    <i type="int" name="INIWAV">     1</i>
   </separator>
   <separator name="electronic spin" >
    <i type="int" name="ISPIN">     1</i>
    <i type="logical" name="LNONCOLLINEAR"> F  </i>
    <v name="MAGMOM">      1.00000000</v>
    <i name="NUPDOWN">     -1.00000000</i>
    <i type="logical" name="LSORBIT"> F  </i>
    <v name="SAXIS">      0.00000000      0.00000000      1.00000000</v>
    <i type="logical" name="LSPIRAL"> F  </i>
    <v name="QSPIRAL">      0.00000000      0.00000000      0.00000000</v>
    <i type="logical" name="LZEROZ"> F  </i>
   </separator>
   <separator name="electronic exchange-correlation" >
    <i type="logical" name="LASPH"> F  </i>
    <i type="logical" name="LMETAGGA"> F  </i>
   </separator>
   <separator name="electronic convergence" >
    <i type="int" name="NELM">    60</i>
    <i type="int" name="NELMDL">    -5</i>
    <i type="int" name="NELMIN">     2</i>
    <i name="ENINI">    350.00000000</i>
    <separator name="electronic convergence detail" >
     <i type="logical" name="LDIAG"> T  </i>
     <i type="logical" name="LSUBROT"> F  </i>
     <i name="WEIMIN">      0.00100000</i>
     <i name="EBREAK">      0.00000278</i>
     <i name="DEPER">      0.30000000</i>
     <i type="int" name="NRMM">     4</i>
     <i name="TIME">      0.40000000</i>
    </separator>
   </separator>
   <separator name="electronic mixer" >
    <i name="AMIX">      0.40000000</i>
    <i name="BMIX">      1.00000000</i>
    <i name="AMIN">      0.10000000</i>
    <i name="AMIX_MAG">      1.60000000</i>
    <i name="BMIX_MAG">      1.00000000</i>
    <separator name="electronic mixer details" >
     <i type="int" name="IMIX">     4</i>
     <i type="int" name="MAXMIX">   -45</i>
     <i name="WC">    100.00000000</i>
     <i type="int" name="INIMIX">     1</i>
     <i type="int" name="MIXPRE">     1</i>
     <i type="int" name="MREMOVE">     5</i>
    </separator>
   </separator>
   <separator name="electronic dipolcorrection" >
    <i type="logical" name="LDIPOL"> F  </i>
    <i type="logical" name="LMONO"> F  </i>
    <i type="int" name="IDIPOL">     0</i>
    <i name="EPSILON">      1.00000000</i>
    <v name="DIPOL">   -100.00000000   -100.00000000   -100.00000000</v>
    <i name="EFIELD">      0.00000000</i>
   </separator>
  </separator>
  <separator name="grids" >
   <i type="int" name="NGX">    12</i>
   <i type="int" name="NGY">    12</i>
   <i type="int" name="NGZ">    12</i>
   <i type="int" name="NGXF">    24</i>
   <i type="int" name="NGYF">    24</i>
   <i type="int" name="NGZF">    24</i>
   <i type="logical" name="ADDGRID"> F  </i>
  </separator>
  <separator name="ionic" >
   <i type="int" name="NSW">    30</i>
   <i type="int" name="IBRION">     2</i>
   <i type="int" name="ISIF">     2</i>
   <i name="PSTRESS">      0.00000000</i>
   <i name="EDIFFG">      0.00100000</i>
   <i type="int" name="NFREE">     1</i>
   <i name="POTIM">      0.50000000</i>
   <i name="SMASS">     -3.00000000</i>
   <i name="SCALEE">      1.00000000</i>
  </separator>
  <separator name="ionic md" >
   <i name="TEBEG">      0.00010000</i>
   <i name="TEEND">      0.00010000</i>
   <i type="int" name="NBLOCK">     1</i>
   <i type="int" name="KBLOCK">    30</i>
   <i type="int" name="NPACO">   256</i>
   <i name="APACO">     16.00000000</i>
  </separator>
  <separator name="symmetry" >
   <i type="int" name="ISYM">     2</i>
   <i name="SYMPREC">      0.00001000</i>
  </separator>
  <separator name="dos" >
   <i type="logical" name="LORBIT"> F  </i>
   <v name="RWIGS">     -1.00000000</v>
   <i type="int" name="NEDOS">   301</i>
   <i name="EMIN">     10.00000000</i>
   <i name="EMAX">    -10.00000000</i>
   <i name="EFERMI">      0.00000000</i>
  </separator>
  <separator name="writing" >
   <i type="int" name="NWRITE">     2</i>
   <i type="logical" name="LWAVE"> T  </i>
   <i type="logical" name="LCHARG"> T  </i>
   <i type="logical" name="LPARD"> F  </i>
   <i type="logical" name="LVTOT"> F  </i>
   <i type="logical" name="LVHAR"> F  </i>
   <i type="logical" name="LELF"> F  </i>
   <i type="logical" name="LOPTICS"> F  </i>
   <v name="STM">      0.00000000      0.00000000      0.00000000      0.00000000      0.00000000      0.00000000      0.00000000</v>
  </separator>
  <separator name="performance" >
   <i type="int" name="NPAR">     1</i>
   <i type="int" name="NSIM">     4</i>
   <i type="int" name="NBLK">    -1</i>
   <i type="logical" name="LPLANE"> T  </i>
   <i type="logical" name="LSCALAPACK"> F  </i>
   <i type="logical" name="LSCAAWARE"> F  </i>
   <i type="logical" name="LSCALU"> F  </i>
   <i type="logical" name="LASYNC"> F  </i>
   <i type="logical" name="LORBITALREAL"> F  </i>
  </separator>
  <separator name="miscellaneous" >
   <i type="int" name="IDIOT">     3</i>
   <i type="logical" name="LMUSIC"> F  </i>
   <v name="POMASS">    106.42000000</v>
   <v name="DARWINR">      0.00000000</v>
   <v name="DARWINV">      1.00000000</v>
   <i type="logical" name="LCORR"> T  </i>
  </separator>
  <i type="logical" name="GGA_COMPAT"> T  </i>
  <i type="logical" name="LBERRY"> F  </i>
  <i type="int" name="ICORELEVEL">     0</i>
  <i type="logical" name="LDAU"> F  </i>
  <i type="int" name="I_CONSTRAINED_M">     0</i>
  <separator name="electronic exchange-correlation" >
   <i type="string" name="GGA">--</i>
   <i type="int" name="VOSKOWN">     0</i>
   <i type="logical" name="LHFCALC"> F  </i>
   <i type="string" name="PRECFOCK"></i>
   <i type="logical" name="LSYMGRAD"> F  </i>
   <i type="logical" name="LHFONE"> F  </i>
   <i type="logical" name="LRHFCALC"> F  </i>
   <i type="logical" name="LTHOMAS"> F  </i>
   <i type="logical" name="LMODELHF"> F  </i>
   <i name="ENCUT4O">     -1.00000000</i>
   <i type="int" name="EXXOEP">     0</i>
   <i type="int" name="FOURORBIT">     0</i>
   <i name="AEXX">      0.00000000</i>
   <i name="HFALPHA">      0.00000000</i>
   <i name="MCALPHA">      0.00000000</i>
   <i name="ALDAX">      1.00000000</i>
   <i name="AGGAX">      1.00000000</i>
   <i name="ALDAC">      1.00000000</i>
   <i name="AGGAC">      1.00000000</i>
   <i type="int" name="NKREDX">     1</i>
   <i type="int" name="NKREDY">     1</i>
   <i type="int" name="NKREDZ">     1</i>
   <i type="logical" name="SHIFTRED"> F  </i>
   <i type="logical" name="ODDONLY"> F  </i>
   <i type="logical" name="EVENONLY"> F  </i>
   <i type="int" name="LMAXFOCK">     0</i>
   <i type="int" name="NMAXFOCKAE">     0</i>
   <i type="logical" name="LFOCKAEDFT"> F  </i>
   <i name="HFSCREEN">      0.00000000</i>
   <i name="HFSCREENC">      0.00000000</i>
   <i type="int" name="NBANDSGWLOW">     0</i>
  </separator>
  <separator name="vdW DFT" >
   <i type="logical" name="LUSE_VDW"> F  </i>
   <i name="Zab_VDW">     -0.84910000</i>
   <i name="PARAM1">      0.12340000</i>
   <i name="PARAM2">      1.00000000</i>
   <i name="PARAM3">      0.00000000</i>
  </separator>
  <separator name="model GW" >
   <i type="int" name="MODEL_GW">     0</i>
   <i name="MODEL_EPS0">      7.81184760</i>
   <i name="MODEL_ALPHA">      1.00000000</i>
  </separator>
  <separator name="linear response parameters" >
   <i type="logical" name="LEPSILON"> F  </i>
   <i type="logical" name="LRPA"> F  </i>
   <i type="logical" name="LNABLA"> F  </i>
   <i type="logical" name="LVEL"> F  </i>
   <i type="int" name="KINTER">     0</i>
   <i name="CSHIFT">      0.10000000</i>
   <i name="OMEGAMAX">     -1.00000000</i>
   <i name="DEG_THRESHOLD">      0.00200000</i>
  </separator>
  <separator name="orbital magnetization" >
   <i type="logical" name="NUCIND"> F  </i>
   <v name="MAGPOS">      0.00000000      0.00000000      0.00000000</v>
   <i type="logical" name="LNICSALL"> T  </i>
   <i type="logical" name="ORBITALMAG"> F  </i>
   <i type="logical" name="LMAGBLOCH"> F  </i>
   <i type="logical" name="LCHIMAG"> F  </i>
   <i type="logical" name="LGAUGE"> T  </i>
   <i type="int" name="MAGATOM">     0</i>
   <v name="MAGDIPOL">      0.00000000      0.00000000      0.00000000</v>
   <v name="AVECCONST">      0.00000000      0.00000000      0.00000000</v>
  </separator>
  <separator name="response functions" >
   <i type="logical" name="LADDER"> F  </i>
   <i type="logical" name="LFXC"> F  </i>
   <i type="logical" name="LHARTREE"> T  </i>
   <i type="int" name="IBSE">     0</i>
   <i type="logical" name="LTCTE"> F  </i>
   <i type="logical" name="LTETE"> F  </i>
   <i type="logical" name="LTRIPLET"> F  </i>
   <i type="logical" name="LFXCEPS"> F  </i>
   <i type="logical" name="LFXHEG"> F  </i>
   <i type="logical" name="L2ORDER"> F  </i>
   <i type="logical" name="LUSEW"> F  </i>
   <i name="ENCUTGW">     -2.00000000</i>
   <i name="ENCUTGWSOFT">     -2.00000000</i>
   <i name="ENCUTLF">     -1.00000000</i>
   <i type="int" name="LMAXMP2">    -1</i>
   <i name="SCISSOR">      0.00000000</i>
   <i type="int" name="NOMEGA">     0</i>
   <i type="int" name="NOMEGAR">     0</i>
   <i type="int" name="NBANDSGW">    -1</i>
   <i type="int" name="NBANDSO">    -1</i>
   <i type="int" name="NBANDSV">    -1</i>
   <i type="int" name="NELM">     1</i>
   <i type="int" name="DIM">     3</i>
   <i type="int" name="ANTIRES">     0</i>
   <i name="OMEGAMAX">    -30.00000000</i>
   <i name="OMEGAMIN">    -30.00000000</i>
   <i name="OMEGATL">   -200.00000000</i>
   <i type="int" name="OMEGAGRID">     0</i>
   <i name="CSHIFT">     -0.10000000</i>
   <i type="logical" name="SELFENERGY"> F  </i>
   <i type="logical" name="LSPECTRAL"> F  </i>
   <i type="logical" name="ODDONLYGW"> F  </i>
   <i type="logical" name="EVENONLYGW"> F  </i>
   <i type="int" name="NKREDLFX">     1</i>
   <i type="int" name="NKREDLFY">     1</i>
   <i type="int" name="NKREDLFZ">     1</i>
   <i type="int" name="MAXMEM">  1800</i>
   <i type="int" name="TELESCOPE">     0</i>
   <i type="int" name="TAUPAR">     1</i>
  </separator>
  <separator name="External order field" >
   <i name="OFIELD_KAPPA">      0.00000000</i>
   <v name="OFIELD_K">      0.00000000      0.00000000      0.00000000</v>
   <i name="OFIELD_Q6_NEAR">      0.00000000</i>
   <i name="OFIELD_Q6_FAR">      0.00000000</i>
   <i name="OFIELD_A">      0.00000000</i>
  </separator>
 </parameters>
 <atominfo>
  <atoms>       1 </atoms>
  <types>       1 </types>
  <array name="atoms" >
   <dimension dim="1">ion</dimension>
   <field type="string">element</field>
   <field type="int">atomtype</field>
   <set>
    <rc><c>Pd</c><c>   1</c></rc>
   </set>
  </array>
  <array name="atomtypes" >
   <dimension dim="1">type</dimension>
   <field type="int">atomspertype</field>
   <field type="string">element</field>
   <field>mass</field>
   <field>valence</field>
   <field type="string">pseudopotential</field>
   <set>
    <rc><c>   1</c><c>Pd</c><c>    106.42000000</c><c>     10.00000000</c><c>  PAW_PBE Pd 04Jan2005                  </c></rc>
   </set>
  </array>
 </atominfo>
 <structure name="initialpos" >
  <crystal>
   <varray name="basis" >
    <v>       2.64061956       0.00000000       0.00000000 </v>
    <v>       1.32030978       2.28684362       0.00000000 </v>
    <v>       1.32030978       0.76228121       2.15605685 </v>
   </varray>
   <i name="volume">     13.01974600 </i>
   <varray name="rec_basis" >
    <v>       0.37869900      -0.21864197      -0.15460322 </v>
    <v>       0.00000000       0.43728394      -0.15460322 </v>
    <v>       0.00000000       0.00000000       0.46380966 </v>
   </varray>
  </crystal>
  <varray name="positions" >
   <v>       0.00000000       0.00000000       0.00000000 </v>
  </varray>
 </structure>
 <calculation>
  <scstep>
   <time name="dav">    0.33    0.33</time>
   <time name="total">    0.35    0.35</time>
   <energy>
    <i name="alphaZ">     50.05875306 </i>
    <i name="ewald">   -883.95777162 </i>
    <i name="hartreedc">   -109.49710119 </i>
    <i name="XCdc">    -28.66186580 </i>
    <i name="pawpsdc">    806.73831454 </i>
    <i name="pawaedc">   -744.51602449 </i>
    <i name="eentropy">     -0.00130109 </i>
    <i name="bandstr">    126.53314173 </i>
    <i name="atom">    809.72612850 </i>
    <i name="e_fr_energy">     26.42227364 </i>
    <i name="e_wo_entrp">     26.42357473 </i>
    <i name="e_0_energy">     26.42270734 </i>
   </energy>
  </scstep>
  <scstep>
   <time name="dav">    0.35    0.35</time>
   <time name="total">    0.35    0.36</time>
   <energy>
    <i name="e_fr_energy">     -4.98514679 </i>
    <i name="e_wo_entrp">     -4.97778595 </i>
    <i name="e_0_energy">     -4.98269318 </i>
   </energy>
  </scstep>
  <scstep>
   <time name="dav">    0.37    0.37</time>
   <time name="total">    0.37    0.38</time>
   <energy>
    <i name="e_fr_energy">     -5.25343002 </i>
    <i name="e_wo_entrp">     -5.24556452 </i>
    <i name="e_0_energy">     -5.25080818 </i>
   </energy>
  </scstep>
  <scstep>
   <time name="dav">    0.36    0.36</time>
   <time name="total">    0.36    0.38</time>
   <energy>
    <i name="e_fr_energy">     -5.25475212 </i>
    <i name="e_wo_entrp">     -5.24688640 </i>
    <i name="e_0_energy">     -5.25213021 </i>
   </energy>
  </scstep>
  <scstep>
   <time name="dav">    0.36    0.36</time>
   <time name="total">    0.39    0.41</time>
   <energy>
    <i name="e_fr_energy">     -5.25476496 </i>
    <i name="e_wo_entrp">     -5.24689924 </i>
    <i name="e_0_energy">     -5.25214306 </i>
   </energy>
  </scstep>
  <scstep>
   <time name="dav">    0.32    0.32</time>
   <time name="total">    0.38    0.39</time>
   <energy>
    <i name="e_fr_energy">     -4.98838581 </i>
    <i name="e_wo_entrp">     -4.98464943 </i>
    <i name="e_0_energy">     -4.98714035 </i>
   </energy>
  </scstep>
  <scstep>
   <time name="dav">    0.40    0.40</time>
   <time name="total">    0.45    0.47</time>
   <energy>
    <i name="e_fr_energy">     -4.96522270 </i>
    <i name="e_wo_entrp">     -4.96166482 </i>
    <i name="e_0_energy">     -4.96403674 </i>
   </energy>
  </scstep>
  <scstep>
   <time name="dav">    0.35    0.35</time>
   <time name="total">    0.40    0.43</time>
   <energy>
    <i name="e_fr_energy">     -4.96011558 </i>
    <i name="e_wo_entrp">     -4.95657476 </i>
    <i name="e_0_energy">     -4.95893531 </i>
   </energy>
  </scstep>
  <scstep>
   <time name="dav">    0.23    0.23</time>
   <time name="total">    0.26    0.27</time>
   <energy>
    <i name="alphaZ">     50.05875306 </i>
    <i name="ewald">   -883.95777162 </i>
    <i name="hartreedc">    -99.09899093 </i>
    <i name="XCdc">    -28.93154561 </i>
    <i name="pawpsdc">   1060.22572973 </i>
    <i name="pawaedc">  -1001.84070212 </i>
    <i name="eentropy">     -0.00352632 </i>
    <i name="bandstr">     88.86184136 </i>
    <i name="atom">    809.72612850 </i>
    <i name="e_fr_energy">     -4.96008396 </i>
    <i name="e_wo_entrp">     -4.95655764 </i>
    <i name="e_0_energy">     -4.95890852 </i>
   </energy>
  </scstep>
  <structure>
   <crystal>
    <varray name="basis" >
     <v>       2.64061956       0.00000000       0.00000000 </v>
     <v>       1.32030978       2.28684362       0.00000000 </v>
     <v>       1.32030978       0.76228121       2.15605685 </v>
    </varray>
    <i name="volume">     13.01974600 </i>
    <varray name="rec_basis" >
     <v>       0.37869900      -0.21864197      -0.15460322 </v>
     <v>       0.00000000       0.43728394      -0.15460322 </v>
     <v>       0.00000000       0.00000000       0.46380966 </v>
    </varray>
   </crystal>
   <varray name="positions" >
    <v>       0.00000000       0.00000000       0.00000000 </v>
   </varray>
  </structure>
  <varray name="forces" >
   <v>       0.00000000       0.00000000       0.00000000 </v>
  </varray>
  <varray name="stress" >
   <v>     409.31353078       0.00000000       0.00000000 </v>
   <v>       0.00000000     409.31353078       0.00000000 </v>
   <v>       0.00000000       0.00000000     409.31353078 </v>
  </varray>
  <energy>
   <i name="e_fr_energy">     -4.96008396 </i>
   <i name="e_wo_entrp">     -4.95890852 </i>
   <i name="e_0_energy">     -0.00352632 </i>
  </energy>
  <time name="totalsc">    3.70    3.93</time>
  <eigenvalues>
   <array>
    <dimension dim="1">band</dimension>
    <dimension dim="2">kpoint</dimension>
    <dimension dim="3">spin</dimension>
    <field>eigene</field>
    <field>occ</field>
    <set>
     <set comment="spin 1">
      <set comment="kpoint 1">
       <r>    4.0539    1.0000 </r>
       <r>    8.5341    1.0000 </r>
       <r>    8.6571    1.0000 </r>
       <r>    8.6571    1.0000 </r>
       <r>   10.5443    1.0000 </r>
       <r>   10.5443    1.0000 </r>
       <r>   29.4245    0.0000 </r>
       <r>   33.7801    0.0000 </r>
       <r>   34.9363    0.0000 </r>
      </set>
      <set comment="kpoint 2">
       <r>    4.8356    1.0000 </r>
       <r>    8.2368    1.0000 </r>
       <r>    8.9120    1.0000 </r>
       <r>    8.9433    1.0000 </r>
       <r>   10.2574    1.0000 </r>
       <r>   10.6815    1.0000 </r>
       <r>   30.2281    0.0000 </r>
       <r>   31.2737    0.0000 </r>
       <r>   34.8720    0.0000 </r>
      </set>
      <set comment="kpoint 3">
       <r>    5.9307    1.0000 </r>
       <r>    8.5387    1.0000 </r>
       <r>    8.9504    1.0000 </r>
       <r>    9.0016    1.0000 </r>
       <r>   10.5446    1.0000 </r>
       <r>   11.3527    1.0000 </r>
       <r>   26.9645    0.0000 </r>
       <r>   30.5051    0.0000 </r>
       <r>   35.4944    0.0000 </r>
      </set>
      <set comment="kpoint 4">
       <r>    5.9163    1.0000 </r>
       <r>    8.5676    1.0000 </r>
       <r>    8.7111    1.0000 </r>
       <r>   10.5490    1.0000 </r>
       <r>   11.5167    1.0003 </r>
       <r>   12.7246    0.0000 </r>
       <r>   22.4922    0.0000 </r>
       <r>   29.2139    0.0000 </r>
       <r>   33.9509    0.0000 </r>
      </set>
      <set comment="kpoint 5">
       <r>    5.8184    1.0000 </r>
       <r>    8.4310    1.0000 </r>
       <r>    8.6345    1.0000 </r>
       <r>   11.1473    1.0000 </r>
       <r>   12.0623    0.5680 </r>
       <r>   13.6887    0.0000 </r>
       <r>   20.5437    0.0000 </r>
       <r>   28.7936    0.0000 </r>
       <r>   33.9249    0.0000 </r>
      </set>
      <set comment="kpoint 6">
       <r>    5.9720    1.0000 </r>
       <r>    8.6314    1.0000 </r>
       <r>    8.8461    1.0000 </r>
       <r>    9.7712    1.0000 </r>
       <r>   11.6827    1.0086 </r>
       <r>   11.8310    1.0354 </r>
       <r>   23.9166    0.0000 </r>
       <r>   29.6481    0.0000 </r>
       <r>   34.7062    0.0000 </r>
      </set>
      <set comment="kpoint 7">
       <r>    5.6654    1.0000 </r>
       <r>    8.2101    1.0000 </r>
       <r>    8.9907    1.0000 </r>
       <r>    9.0665    1.0000 </r>
       <r>   10.4610    1.0000 </r>
       <r>   10.9251    1.0000 </r>
       <r>   28.4296    0.0000 </r>
       <r>   30.8338    0.0000 </r>
       <r>   35.5583    0.0000 </r>
      </set>
      <set comment="kpoint 8">
       <r>    4.4620    1.0000 </r>
       <r>    8.3117    1.0000 </r>
       <r>    8.8393    1.0000 </r>
       <r>    8.8467    1.0000 </r>
       <r>   10.2980    1.0000 </r>
       <r>   10.6585    1.0000 </r>
       <r>   29.9326    0.0000 </r>
       <r>   32.5916    0.0000 </r>
       <r>   34.8451    0.0000 </r>
      </set>
      <set comment="kpoint 9">
       <r>    5.2015    1.0000 </r>
       <r>    7.8907    1.0000 </r>
       <r>    9.1788    1.0000 </r>
       <r>    9.2157    1.0000 </r>
       <r>    9.9724    1.0000 </r>
       <r>   10.8731    1.0000 </r>
       <r>   30.7753    0.0000 </r>
       <r>   31.5728    0.0000 </r>
       <r>   34.1895    0.0000 </r>
      </set>
      <set comment="kpoint 10">
       <r>    6.2677    1.0000 </r>
       <r>    7.5335    1.0000 </r>
       <r>    8.9151    1.0000 </r>
       <r>    9.6711    1.0000 </r>
       <r>   10.4338    1.0000 </r>
       <r>   11.5129    1.0002 </r>
       <r>   28.8932    0.0000 </r>
       <r>   30.8375    0.0000 </r>
       <r>   33.4118    0.0000 </r>
      </set>
      <set comment="kpoint 11">
       <r>    6.4824    1.0000 </r>
       <r>    8.1486    1.0000 </r>
       <r>    8.6415    1.0000 </r>
       <r>    9.4893    1.0000 </r>
       <r>   11.6278    1.0033 </r>
       <r>   13.4052    0.0000 </r>
       <r>   24.2181    0.0000 </r>
       <r>   29.8288    0.0000 </r>
       <r>   31.6789    0.0000 </r>
      </set>
      <set comment="kpoint 12">
       <r>    6.3823    1.0000 </r>
       <r>    7.9417    1.0000 </r>
       <r>    9.2034    1.0000 </r>
       <r>    9.6297    1.0000 </r>
       <r>   11.9734    0.8835 </r>
       <r>   15.9582    0.0000 </r>
       <r>   20.4843    0.0000 </r>
       <r>   29.0657    0.0000 </r>
       <r>   31.2509    0.0000 </r>
      </set>
      <set comment="kpoint 13">
       <r>    6.5392    1.0000 </r>
       <r>    8.1222    1.0000 </r>
       <r>    9.0471    1.0000 </r>
       <r>    9.3898    1.0000 </r>
       <r>   11.3689    1.0000 </r>
       <r>   14.5575    0.0000 </r>
       <r>   22.7998    0.0000 </r>
       <r>   28.9749    0.0000 </r>
       <r>   31.5383    0.0000 </r>
      </set>
      <set comment="kpoint 14">
       <r>    6.6380    1.0000 </r>
       <r>    7.7966    1.0000 </r>
       <r>    8.6643    1.0000 </r>
       <r>    9.6090    1.0000 </r>
       <r>   10.2399    1.0000 </r>
       <r>   12.3764   -0.0281 </r>
       <r>   27.3915    0.0000 </r>
       <r>   29.6367    0.0000 </r>
       <r>   33.3933    0.0000 </r>
      </set>
      <set comment="kpoint 15">
       <r>    5.5095    1.0000 </r>
       <r>    7.9446    1.0000 </r>
       <r>    9.0551    1.0000 </r>
       <r>    9.2109    1.0000 </r>
       <r>   10.0965    1.0000 </r>
       <r>   11.0012    1.0000 </r>
       <r>   29.9034    0.0000 </r>
       <r>   30.8616    0.0000 </r>
       <r>   34.4712    0.0000 </r>
      </set>
      <set comment="kpoint 16">
       <r>    6.3823    1.0000 </r>
       <r>    6.8687    1.0000 </r>
       <r>    9.7337    1.0000 </r>
       <r>   10.3864    1.0000 </r>
       <r>   11.0916    1.0000 </r>
       <r>   11.4917    1.0001 </r>
       <r>   29.3407    0.0000 </r>
       <r>   30.6015    0.0000 </r>
       <r>   30.9062    0.0000 </r>
      </set>
      <set comment="kpoint 17">
       <r>    6.4030    1.0000 </r>
       <r>    6.6972    1.0000 </r>
       <r>    9.6138    1.0000 </r>
       <r>   10.8969    1.0000 </r>
       <r>   11.7253    1.0158 </r>
       <r>   13.6830    0.0000 </r>
       <r>   26.3435    0.0000 </r>
       <r>   28.3467    0.0000 </r>
       <r>   28.8865    0.0000 </r>
      </set>
      <set comment="kpoint 18">
       <r>    6.5005    1.0000 </r>
       <r>    7.2094    1.0000 </r>
       <r>    9.1454    1.0000 </r>
       <r>   10.4399    1.0000 </r>
       <r>   12.0700    0.5358 </r>
       <r>   17.4303    0.0000 </r>
       <r>   21.7630    0.0000 </r>
       <r>   26.7359    0.0000 </r>
       <r>   28.7916    0.0000 </r>
      </set>
      <set comment="kpoint 19">
       <r>    7.0321    1.0000 </r>
       <r>    7.7340    1.0000 </r>
       <r>    8.4621    1.0000 </r>
       <r>   10.1175    1.0000 </r>
       <r>   11.4282    1.0000 </r>
       <r>   17.6781    0.0000 </r>
       <r>   22.3191    0.0000 </r>
       <r>   25.1580    0.0000 </r>
       <r>   30.5582    0.0000 </r>
      </set>
      <set comment="kpoint 20">
       <r>    7.2113    1.0000 </r>
       <r>    7.9476    1.0000 </r>
       <r>    8.1997    1.0000 </r>
       <r>    9.8319    1.0000 </r>
       <r>   10.7667    1.0000 </r>
       <r>   14.7318    0.0000 </r>
       <r>   24.8152    0.0000 </r>
       <r>   27.1425    0.0000 </r>
       <r>   31.6781    0.0000 </r>
      </set>
      <set comment="kpoint 21">
       <r>    6.2340    1.0000 </r>
       <r>    8.6015    1.0000 </r>
       <r>    8.7124    1.0000 </r>
       <r>    9.1493    1.0000 </r>
       <r>   10.9674    1.0000 </r>
       <r>   12.1517    0.2116 </r>
       <r>   25.5899    0.0000 </r>
       <r>   30.1829    0.0000 </r>
       <r>   33.6819    0.0000 </r>
      </set>
      <set comment="kpoint 22">
       <r>    5.8137    1.0000 </r>
       <r>    6.1055    1.0000 </r>
       <r>   11.4898    1.0001 </r>
       <r>   11.6152    1.0025 </r>
       <r>   12.1357    0.2683 </r>
       <r>   14.2146    0.0000 </r>
       <r>   26.2119    0.0000 </r>
       <r>   26.5022    0.0000 </r>
       <r>   27.1286    0.0000 </r>
      </set>
      <set comment="kpoint 23">
       <r>    5.8580    1.0000 </r>
       <r>    6.2145    1.0000 </r>
       <r>   10.8609    1.0000 </r>
       <r>   11.5714    1.0010 </r>
       <r>   12.3455   -0.0338 </r>
       <r>   17.0252    0.0000 </r>
       <r>   24.1089    0.0000 </r>
       <r>   24.7443    0.0000 </r>
       <r>   26.3443    0.0000 </r>
      </set>
      <set comment="kpoint 24">
       <r>    6.3829    1.0000 </r>
       <r>    7.0528    1.0000 </r>
       <r>    9.4074    1.0000 </r>
       <r>   10.7708    1.0000 </r>
       <r>   12.0053    0.7876 </r>
       <r>   19.5093    0.0000 </r>
       <r>   21.0741    0.0000 </r>
       <r>   24.5201    0.0000 </r>
       <r>   28.3578    0.0000 </r>
      </set>
      <set comment="kpoint 25">
       <r>    6.7908    1.0000 </r>
       <r>    7.6645    1.0000 </r>
       <r>    9.0206    1.0000 </r>
       <r>    9.6786    1.0000 </r>
       <r>   11.7556    1.0224 </r>
       <r>   17.3568    0.0000 </r>
       <r>   20.6314    0.0000 </r>
       <r>   27.5663    0.0000 </r>
       <r>   30.5749    0.0000 </r>
      </set>
      <set comment="kpoint 26">
       <r>    6.0632    1.0000 </r>
       <r>    8.2975    1.0000 </r>
       <r>    8.8602    1.0000 </r>
       <r>   10.2167    1.0000 </r>
       <r>   11.8803    1.0241 </r>
       <r>   14.1650    0.0000 </r>
       <r>   21.3078    0.0000 </r>
       <r>   29.1523    0.0000 </r>
       <r>   32.7059    0.0000 </r>
      </set>
      <set comment="kpoint 27">
       <r>    5.5979    1.0000 </r>
       <r>    5.9379    1.0000 </r>
       <r>   11.8942    1.0149 </r>
       <r>   11.9767    0.8749 </r>
       <r>   12.3730   -0.0288 </r>
       <r>   15.6766    0.0000 </r>
       <r>   24.4619    0.0000 </r>
       <r>   25.5569    0.0000 </r>
       <r>   26.2790    0.0000 </r>
      </set>
      <set comment="kpoint 28">
       <r>    6.0716    1.0000 </r>
       <r>    6.3759    1.0000 </r>
       <r>   10.3386    1.0000 </r>
       <r>   11.4072    1.0000 </r>
       <r>   12.0940    0.4341 </r>
       <r>   15.4729    0.0000 </r>
       <r>   25.0630    0.0000 </r>
       <r>   26.4534    0.0000 </r>
       <r>   27.0690    0.0000 </r>
      </set>
      <set comment="kpoint 29">
       <r>    6.5771    1.0000 </r>
       <r>    7.5870    1.0000 </r>
       <r>    8.8268    1.0000 </r>
       <r>    9.9567    1.0000 </r>
       <r>   11.9945    0.8228 </r>
       <r>   15.2412    0.0000 </r>
       <r>   22.8826    0.0000 </r>
       <r>   28.9347    0.0000 </r>
       <r>   29.7772    0.0000 </r>
      </set>
      <set comment="kpoint 30">
       <r>    6.1599    1.0000 </r>
       <r>    6.4272    1.0000 </r>
       <r>   10.6509    1.0000 </r>
       <r>   11.0600    1.0000 </r>
       <r>   11.8240    1.0351 </r>
       <r>   12.4678   -0.0095 </r>
       <r>   27.7748    0.0000 </r>
       <r>   28.6549    0.0000 </r>
       <r>   28.7999    0.0000 </r>
      </set>
      <set comment="kpoint 31">
       <r>    6.6156    1.0000 </r>
       <r>    7.1117    1.0000 </r>
       <r>    8.9913    1.0000 </r>
       <r>   10.2549    1.0000 </r>
       <r>   11.1503    1.0000 </r>
       <r>   12.3122   -0.0349 </r>
       <r>   27.7194    0.0000 </r>
       <r>   29.8275    0.0000 </r>
       <r>   31.2502    0.0000 </r>
      </set>
      <set comment="kpoint 32">
       <r>    6.0233    1.0000 </r>
       <r>    7.3790    1.0000 </r>
       <r>    9.3258    1.0000 </r>
       <r>    9.7437    1.0000 </r>
       <r>   10.1978    1.0000 </r>
       <r>   11.1621    1.0000 </r>
       <r>   30.5056    0.0000 </r>
       <r>   31.8138    0.0000 </r>
       <r>   32.6271    0.0000 </r>
      </set>
      <set comment="kpoint 33">
       <r>    5.1388    1.0000 </r>
       <r>    8.2954    1.0000 </r>
       <r>    8.9420    1.0000 </r>
       <r>    8.9420    1.0000 </r>
       <r>   10.5112    1.0000 </r>
       <r>   10.5112    1.0000 </r>
       <r>   29.6633    0.0000 </r>
       <r>   30.6968    0.0000 </r>
       <r>   36.4633    0.0000 </r>
      </set>
      <set comment="kpoint 34">
       <r>    6.0468    1.0000 </r>
       <r>    7.9345    1.0000 </r>
       <r>    8.9674    1.0000 </r>
       <r>    9.3226    1.0000 </r>
       <r>    9.9860    1.0000 </r>
       <r>   11.5495    1.0006 </r>
       <r>   28.5881    0.0000 </r>
       <r>   30.4250    0.0000 </r>
       <r>   34.6733    0.0000 </r>
      </set>
      <set comment="kpoint 35">
       <r>    6.9663    1.0000 </r>
       <r>    7.9890    1.0000 </r>
       <r>    8.5595    1.0000 </r>
       <r>    9.5280    1.0000 </r>
       <r>   10.2955    1.0000 </r>
       <r>   13.4467    0.0000 </r>
       <r>   26.0598    0.0000 </r>
       <r>   28.3854    0.0000 </r>
       <r>   32.7621    0.0000 </r>
      </set>
      <set comment="kpoint 36">
       <r>    6.6352    1.0000 </r>
       <r>    7.9487    1.0000 </r>
       <r>    9.3125    1.0000 </r>
       <r>    9.3314    1.0000 </r>
       <r>   11.4613    1.0001 </r>
       <r>   15.8559    0.0000 </r>
       <r>   21.5848    0.0000 </r>
       <r>   28.1605    0.0000 </r>
       <r>   31.7490    0.0000 </r>
      </set>
      <set comment="kpoint 37">
       <r>    6.4358    1.0000 </r>
       <r>    7.8622    1.0000 </r>
       <r>    9.2114    1.0000 </r>
       <r>    9.4461    1.0000 </r>
       <r>   12.1212    0.3236 </r>
       <r>   15.6228    0.0000 </r>
       <r>   21.3360    0.0000 </r>
       <r>   28.9717    0.0000 </r>
       <r>   31.7099    0.0000 </r>
      </set>
      <set comment="kpoint 38">
       <r>    6.4943    1.0000 </r>
       <r>    7.6134    1.0000 </r>
       <r>    8.8035    1.0000 </r>
       <r>    9.7317    1.0000 </r>
       <r>   11.8234    1.0351 </r>
       <r>   12.4419   -0.0138 </r>
       <r>   25.8802    0.0000 </r>
       <r>   30.4889    0.0000 </r>
       <r>   31.5802    0.0000 </r>
      </set>
      <set comment="kpoint 39">
       <r>    6.2217    1.0000 </r>
       <r>    7.9881    1.0000 </r>
       <r>    8.7954    1.0000 </r>
       <r>    9.3280    1.0000 </r>
       <r>   11.1097    1.0000 </r>
       <r>   11.3948    1.0000 </r>
       <r>   27.2033    0.0000 </r>
       <r>   30.9198    0.0000 </r>
       <r>   33.6459    0.0000 </r>
      </set>
      <set comment="kpoint 40">
       <r>    6.9579    1.0000 </r>
       <r>    7.6024    1.0000 </r>
       <r>    8.3324    1.0000 </r>
       <r>   10.1055    1.0000 </r>
       <r>   10.8698    1.0000 </r>
       <r>   13.4938    0.0000 </r>
       <r>   26.1717    0.0000 </r>
       <r>   28.5124    0.0000 </r>
       <r>   31.3740    0.0000 </r>
      </set>
      <set comment="kpoint 41">
       <r>    7.3601    1.0000 </r>
       <r>    7.5214    1.0000 </r>
       <r>    8.0983    1.0000 </r>
       <r>   10.2630    1.0000 </r>
       <r>   11.3774    1.0000 </r>
       <r>   16.3595    0.0000 </r>
       <r>   23.6252    0.0000 </r>
       <r>   26.0758    0.0000 </r>
       <r>   29.6624    0.0000 </r>
      </set>
      <set comment="kpoint 42">
       <r>    6.9838    1.0000 </r>
       <r>    7.4078    1.0000 </r>
       <r>    8.6172    1.0000 </r>
       <r>   10.1383    1.0000 </r>
       <r>   11.9220    0.9853 </r>
       <r>   18.4391    0.0000 </r>
       <r>   20.6968    0.0000 </r>
       <r>   27.2234    0.0000 </r>
       <r>   28.0276    0.0000 </r>
      </set>
      <set comment="kpoint 43">
       <r>    6.8305    1.0000 </r>
       <r>    7.1959    1.0000 </r>
       <r>    8.6304    1.0000 </r>
       <r>   10.6527    1.0000 </r>
       <r>   11.4869    1.0001 </r>
       <r>   15.0367    0.0000 </r>
       <r>   24.9171    0.0000 </r>
       <r>   27.2838    0.0000 </r>
       <r>   29.1157    0.0000 </r>
      </set>
      <set comment="kpoint 44">
       <r>    6.4060    1.0000 </r>
       <r>    7.1099    1.0000 </r>
       <r>    9.3175    1.0000 </r>
       <r>   10.2435    1.0000 </r>
       <r>   12.1192    0.3312 </r>
       <r>   14.2374    0.0000 </r>
       <r>   24.4830    0.0000 </r>
       <r>   28.8671    0.0000 </r>
       <r>   29.8170    0.0000 </r>
      </set>
      <set comment="kpoint 45">
       <r>    6.5307    1.0000 </r>
       <r>    6.8774    1.0000 </r>
       <r>    9.1663    1.0000 </r>
       <r>   10.9754    1.0000 </r>
       <r>   11.9930    0.8275 </r>
       <r>   16.9511    0.0000 </r>
       <r>   23.8211    0.0000 </r>
       <r>   26.1754    0.0000 </r>
       <r>   26.7550    0.0000 </r>
      </set>
      <set comment="kpoint 46">
       <r>    6.7464    1.0000 </r>
       <r>    7.4688    1.0000 </r>
       <r>    8.4342    1.0000 </r>
       <r>   10.4987    1.0000 </r>
       <r>   12.3319   -0.0352 </r>
       <r>   20.4358    0.0000 </r>
       <r>   21.9466    0.0000 </r>
       <r>   24.3266    0.0000 </r>
       <r>   25.3736    0.0000 </r>
      </set>
      <set comment="kpoint 47">
       <r>    7.0017    1.0000 </r>
       <r>    7.4797    1.0000 </r>
       <r>    8.2476    1.0000 </r>
       <r>   10.4840    1.0000 </r>
       <r>   11.9507    0.9365 </r>
       <r>   18.3626    0.0000 </r>
       <r>   22.5875    0.0000 </r>
       <r>   25.3142    0.0000 </r>
       <r>   27.1378    0.0000 </r>
      </set>
      <set comment="kpoint 48">
       <r>    6.0183    1.0000 </r>
       <r>    6.5419    1.0000 </r>
       <r>   10.3417    1.0000 </r>
       <r>   11.2211    1.0000 </r>
       <r>   12.1460    0.2314 </r>
       <r>   18.0524    0.0000 </r>
       <r>   22.5383    0.0000 </r>
       <r>   24.5193    0.0000 </r>
       <r>   27.8931    0.0000 </r>
      </set>
      <set comment="kpoint 49">
       <r>    6.3111    1.0000 </r>
       <r>    6.7407    1.0000 </r>
       <r>    9.5856    1.0000 </r>
       <r>   11.0026    1.0000 </r>
       <r>   12.3350   -0.0350 </r>
       <r>   18.7323    0.0000 </r>
       <r>   23.1464    0.0000 </r>
       <r>   24.4574    0.0000 </r>
       <r>   25.8547    0.0000 </r>
      </set>
      <set comment="kpoint 50">
       <r>    6.1851    1.0000 </r>
       <r>    6.7257    1.0000 </r>
       <r>    9.9368    1.0000 </r>
       <r>   10.7904    1.0000 </r>
       <r>   12.2177    0.0413 </r>
       <r>   16.2841    0.0000 </r>
       <r>   23.2632    0.0000 </r>
       <r>   26.5265    0.0000 </r>
       <r>   28.5518    0.0000 </r>
      </set>
      <set comment="kpoint 51">
       <r>    5.8828    1.0000 </r>
       <r>    8.8269    1.0000 </r>
       <r>    8.8269    1.0000 </r>
       <r>    9.4681    1.0000 </r>
       <r>   11.1520    1.0000 </r>
       <r>   11.1520    1.0000 </r>
       <r>   25.3689    0.0000 </r>
       <r>   30.0021    0.0000 </r>
       <r>   36.9181    0.0000 </r>
      </set>
      <set comment="kpoint 52">
       <r>    6.3398    1.0000 </r>
       <r>    8.4593    1.0000 </r>
       <r>    9.0510    1.0000 </r>
       <r>    9.2428    1.0000 </r>
       <r>   10.9241    1.0000 </r>
       <r>   13.2081    0.0000 </r>
       <r>   24.1382    0.0000 </r>
       <r>   29.5288    0.0000 </r>
       <r>   32.7198    0.0000 </r>
      </set>
      <set comment="kpoint 53">
       <r>    7.1670    1.0000 </r>
       <r>    7.9137    1.0000 </r>
       <r>    8.4583    1.0000 </r>
       <r>    9.7934    1.0000 </r>
       <r>   10.9788    1.0000 </r>
       <r>   16.0774    0.0000 </r>
       <r>   23.5636    0.0000 </r>
       <r>   25.9580    0.0000 </r>
       <r>   32.2081    0.0000 </r>
      </set>
      <set comment="kpoint 54">
       <r>    6.6178    1.0000 </r>
       <r>    7.4970    1.0000 </r>
       <r>    8.9937    1.0000 </r>
       <r>   10.4008    1.0000 </r>
       <r>   11.6472    1.0047 </r>
       <r>   19.1171    0.0000 </r>
       <r>   20.9578    0.0000 </r>
       <r>   24.6858    0.0000 </r>
       <r>   30.6202    0.0000 </r>
      </set>
      <set comment="kpoint 55">
       <r>    6.1812    1.0000 </r>
       <r>    8.2825    1.0000 </r>
       <r>    9.0605    1.0000 </r>
       <r>    9.4772    1.0000 </r>
       <r>   12.0317    0.6919 </r>
       <r>   13.5207    0.0000 </r>
       <r>   22.5580    0.0000 </r>
       <r>   29.5499    0.0000 </r>
       <r>   32.9523    0.0000 </r>
      </set>
      <set comment="kpoint 56">
       <r>    6.8057    1.0000 </r>
       <r>    7.6774    1.0000 </r>
       <r>    8.8368    1.0000 </r>
       <r>    9.7419    1.0000 </r>
       <r>   11.7674    1.0251 </r>
       <r>   16.3389    0.0000 </r>
       <r>   21.5942    0.0000 </r>
       <r>   28.4331    0.0000 </r>
       <r>   29.7291    0.0000 </r>
      </set>
      <set comment="kpoint 57">
       <r>    6.8826    1.0000 </r>
       <r>    7.5221    1.0000 </r>
       <r>    8.4578    1.0000 </r>
       <r>   10.3896    1.0000 </r>
       <r>   11.9510    0.9360 </r>
       <r>   19.6328    0.0000 </r>
       <r>   21.2075    0.0000 </r>
       <r>   24.7311    0.0000 </r>
       <r>   27.8104    0.0000 </r>
      </set>
      <set comment="kpoint 58">
       <r>    6.6026    1.0000 </r>
       <r>    7.5705    1.0000 </r>
       <r>    9.0571    1.0000 </r>
       <r>    9.9438    1.0000 </r>
       <r>   11.9469    0.9441 </r>
       <r>   17.8593    0.0000 </r>
       <r>   20.4805    0.0000 </r>
       <r>   27.0019    0.0000 </r>
       <r>   30.9588    0.0000 </r>
      </set>
      <set comment="kpoint 59">
       <r>    5.7416    1.0000 </r>
       <r>    8.5682    1.0000 </r>
       <r>    8.5682    1.0000 </r>
       <r>   11.9295    0.9745 </r>
       <r>   11.9295    0.9745 </r>
       <r>   12.1579    0.1914 </r>
       <r>   21.2729    0.0000 </r>
       <r>   28.7871    0.0000 </r>
       <r>   34.6887    0.0000 </r>
      </set>
      <set comment="kpoint 60">
       <r>    6.1316    1.0000 </r>
       <r>    8.1885    1.0000 </r>
       <r>    8.9028    1.0000 </r>
       <r>   10.2316    1.0000 </r>
       <r>   11.8850    1.0214 </r>
       <r>   15.0831    0.0000 </r>
       <r>   20.5268    0.0000 </r>
       <r>   29.0227    0.0000 </r>
       <r>   32.3582    0.0000 </r>
      </set>
     </set>
    </set>
   </array>
  </eigenvalues>
  <separator name="orbital magnetization" >
   <v name="MAGDIPOLOUT">      0.00000000      0.00000000      0.00000000</v>
  </separator>
  <dos>
   <i name="efermi">     12.07840890 </i>
   <total>
    <array>
     <dimension dim="1">gridpoints</dimension>
     <dimension dim="2">spin</dimension>
     <field>energy</field>
     <field>total</field>
     <field>integrated</field>
     <set>
      <set comment="spin 1">
       <r>     2.0539     0.0000     0.0000 </r>
       <r>     2.1768     0.0000     0.0000 </r>
       <r>     2.2997     0.0000     0.0000 </r>
       <r>     2.4226     0.0000     0.0000 </r>
       <r>     2.5454     0.0000     0.0000 </r>
       <r>     2.6683     0.0000     0.0000 </r>
       <r>     2.7912     0.0000     0.0000 </r>
       <r>     2.9141     0.0000     0.0000 </r>
       <r>     3.0370     0.0000     0.0000 </r>
       <r>     3.1599     0.0000     0.0000 </r>
       <r>     3.2827     0.0000     0.0000 </r>
       <r>     3.4056     0.0000     0.0000 </r>
       <r>     3.5285     0.0000     0.0000 </r>
       <r>     3.6514    -0.0004    -0.0001 </r>
       <r>     3.7743    -0.0015    -0.0002 </r>
       <r>     3.8971     0.0029     0.0001 </r>
       <r>     4.0200     0.0212     0.0027 </r>
       <r>     4.1429     0.0268     0.0060 </r>
       <r>     4.2658     0.0122     0.0075 </r>
       <r>     4.3887     0.0435     0.0128 </r>
       <r>     4.5115     0.0890     0.0238 </r>
       <r>     4.6344     0.0566     0.0307 </r>
       <r>     4.7573     0.0455     0.0363 </r>
       <r>     4.8802     0.0836     0.0466 </r>
       <r>     5.0031     0.0637     0.0544 </r>
       <r>     5.1259     0.0706     0.0631 </r>
       <r>     5.2488     0.1044     0.0759 </r>
       <r>     5.3717     0.0859     0.0865 </r>
       <r>     5.4946     0.1712     0.1075 </r>
       <r>     5.6175     0.2898     0.1431 </r>
       <r>     5.7403     0.3501     0.1861 </r>
       <r>     5.8632     0.6064     0.2607 </r>
       <r>     5.9861     0.9986     0.3834 </r>
       <r>     6.1090     1.2973     0.5428 </r>
       <r>     6.2319     1.5155     0.7290 </r>
       <r>     6.3547     1.8381     0.9549 </r>
       <r>     6.4776     2.1557     1.2198 </r>
       <r>     6.6005     2.1249     1.4809 </r>
       <r>     6.7234     1.8790     1.7118 </r>
       <r>     6.8463     1.7317     1.9246 </r>
       <r>     6.9692     1.6556     2.1280 </r>
       <r>     7.0920     1.5090     2.3134 </r>
       <r>     7.2149     1.1878     2.4594 </r>
       <r>     7.3378     0.9121     2.5715 </r>
       <r>     7.4607     1.2542     2.7256 </r>
       <r>     7.5836     1.7598     2.9418 </r>
       <r>     7.7064     1.4940     3.1254 </r>
       <r>     7.8293     1.0851     3.2587 </r>
       <r>     7.9522     1.2365     3.4107 </r>
       <r>     8.0751     1.3344     3.5747 </r>
       <r>     8.1980     1.3621     3.7420 </r>
       <r>     8.3208     1.4475     3.9199 </r>
       <r>     8.4437     1.4636     4.0997 </r>
       <r>     8.5666     1.7295     4.3123 </r>
       <r>     8.6895     1.9364     4.5502 </r>
       <r>     8.8124     1.9191     4.7860 </r>
       <r>     8.9352     2.2027     5.0567 </r>
       <r>     9.0581     2.4470     5.3574 </r>
       <r>     9.1810     2.2372     5.6323 </r>
       <r>     9.3039     1.7908     5.8523 </r>
       <r>     9.4268     1.4004     6.0244 </r>
       <r>     9.5496     1.3465     6.1899 </r>
       <r>     9.6725     1.5980     6.3862 </r>
       <r>     9.7954     1.4818     6.5683 </r>
       <r>     9.9183     1.0033     6.6916 </r>
       <r>    10.0412     0.9386     6.8070 </r>
       <r>    10.1640     1.4440     6.9844 </r>
       <r>    10.2869     1.9967     7.2298 </r>
       <r>    10.4098     2.0450     7.4810 </r>
       <r>    10.5327     1.6491     7.6837 </r>
       <r>    10.6556     1.1451     7.8244 </r>
       <r>    10.7785     1.0966     7.9591 </r>
       <r>    10.9013     1.5479     8.1493 </r>
       <r>    11.0242     1.7572     8.3653 </r>
       <r>    11.1471     1.3047     8.5256 </r>
       <r>    11.2700     0.8359     8.6283 </r>
       <r>    11.3929     1.1429     8.7687 </r>
       <r>    11.5157     1.6793     8.9751 </r>
       <r>    11.6386     1.5267     9.1627 </r>
       <r>    11.7615     1.3004     9.3225 </r>
       <r>    11.8844     1.7624     9.5391 </r>
       <r>    12.0073     2.4135     9.8356 </r>
       <r>    12.1301     2.1457    10.0993 </r>
       <r>    12.2530     1.4343    10.2755 </r>
       <r>    12.3759     1.2241    10.4259 </r>
       <r>    12.4988     0.8423    10.5294 </r>
       <r>    12.6217     0.2332    10.5581 </r>
       <r>    12.7445     0.0483    10.5640 </r>
       <r>    12.8674     0.0447    10.5695 </r>
       <r>    12.9903     0.0036    10.5700 </r>
       <r>    13.1132     0.0116    10.5714 </r>
       <r>    13.2361     0.0820    10.5815 </r>
       <r>    13.3589     0.2533    10.6126 </r>
       <r>    13.4818     0.5019    10.6743 </r>
       <r>    13.6047     0.5335    10.7398 </r>
       <r>    13.7276     0.3740    10.7858 </r>
       <r>    13.8505     0.1508    10.8043 </r>
       <r>    13.9733     0.0007    10.8044 </r>
       <r>    14.0962     0.1150    10.8185 </r>
       <r>    14.2191     0.3343    10.8596 </r>
       <r>    14.3420     0.2690    10.8927 </r>
       <r>    14.4649     0.1152    10.9068 </r>
       <r>    14.5878     0.1892    10.9301 </r>
       <r>    14.7106     0.2633    10.9624 </r>
       <r>    14.8335     0.1871    10.9854 </r>
       <r>    14.9564     0.1433    11.0030 </r>
       <r>    15.0793     0.2679    11.0360 </r>
       <r>    15.2022     0.3148    11.0746 </r>
       <r>    15.3250     0.2351    11.1035 </r>
       <r>    15.4479     0.2047    11.1287 </r>
       <r>    15.5708     0.2480    11.1592 </r>
       <r>    15.6937     0.2343    11.1880 </r>
       <r>    15.8166     0.1978    11.2123 </r>
       <r>    15.9394     0.2547    11.2436 </r>
       <r>    16.0623     0.2597    11.2755 </r>
       <r>    16.1852     0.2006    11.3001 </r>
       <r>    16.3081     0.3539    11.3436 </r>
       <r>    16.4310     0.4300    11.3965 </r>
       <r>    16.5538     0.1664    11.4169 </r>
       <r>    16.6767    -0.0239    11.4140 </r>
       <r>    16.7996    -0.0012    11.4138 </r>
       <r>    16.9225     0.1920    11.4374 </r>
       <r>    17.0454     0.3455    11.4798 </r>
       <r>    17.1682     0.2060    11.5052 </r>
       <r>    17.2911     0.1444    11.5229 </r>
       <r>    17.4140     0.3115    11.5612 </r>
       <r>    17.5369     0.3006    11.5981 </r>
       <r>    17.6598     0.2064    11.6235 </r>
       <r>    17.7826     0.1981    11.6478 </r>
       <r>    17.9055     0.1547    11.6668 </r>
       <r>    18.0284     0.1135    11.6808 </r>
       <r>    18.1513     0.0762    11.6901 </r>
       <r>    18.2742     0.1123    11.7039 </r>
       <r>    18.3971     0.2957    11.7403 </r>
       <r>    18.5199     0.3094    11.7783 </r>
       <r>    18.6428     0.1707    11.7993 </r>
       <r>    18.7657     0.1687    11.8200 </r>
       <r>    18.8886     0.1189    11.8346 </r>
       <r>    19.0115     0.0444    11.8401 </r>
       <r>    19.1343     0.0736    11.8491 </r>
       <r>    19.2572     0.0582    11.8563 </r>
       <r>    19.3801     0.0414    11.8614 </r>
       <r>    19.5030     0.1889    11.8846 </r>
       <r>    19.6259     0.3227    11.9242 </r>
       <r>    19.7487     0.2146    11.9506 </r>
       <r>    19.8716     0.0392    11.9554 </r>
       <r>    19.9945    -0.0152    11.9536 </r>
       <r>    20.1174    -0.0221    11.9508 </r>
       <r>    20.2403    -0.0258    11.9477 </r>
       <r>    20.3631     0.1503    11.9661 </r>
       <r>    20.4860     0.5707    12.0363 </r>
       <r>    20.6089     0.7548    12.1290 </r>
       <r>    20.7318     0.5079    12.1914 </r>
       <r>    20.8547     0.1876    12.2145 </r>
       <r>    20.9775     0.1309    12.2306 </r>
       <r>    21.1004     0.2846    12.2655 </r>
       <r>    21.2233     0.4379    12.3194 </r>
       <r>    21.3462     0.4522    12.3749 </r>
       <r>    21.4691     0.2914    12.4107 </r>
       <r>    21.5919     0.2689    12.4438 </r>
       <r>    21.7148     0.3332    12.4847 </r>
       <r>    21.8377     0.2967    12.5212 </r>
       <r>    21.9606     0.2421    12.5509 </r>
       <r>    22.0835     0.1337    12.5674 </r>
       <r>    22.2064     0.0587    12.5746 </r>
       <r>    22.3292     0.1512    12.5932 </r>
       <r>    22.4521     0.3039    12.6305 </r>
       <r>    22.5750     0.4425    12.6849 </r>
       <r>    22.6979     0.4039    12.7345 </r>
       <r>    22.8208     0.3406    12.7764 </r>
       <r>    22.9436     0.3065    12.8140 </r>
       <r>    23.0665     0.2019    12.8388 </r>
       <r>    23.1894     0.2209    12.8660 </r>
       <r>    23.3123     0.1916    12.8895 </r>
       <r>    23.4352     0.0852    12.9000 </r>
       <r>    23.5580     0.1589    12.9195 </r>
       <r>    23.6809     0.2868    12.9548 </r>
       <r>    23.8038     0.2893    12.9903 </r>
       <r>    23.9267     0.2531    13.0214 </r>
       <r>    24.0496     0.2609    13.0535 </r>
       <r>    24.1724     0.3996    13.1026 </r>
       <r>    24.2953     0.4842    13.1621 </r>
       <r>    24.4182     0.5809    13.2335 </r>
       <r>    24.5411     0.6932    13.3186 </r>
       <r>    24.6640     0.6330    13.3964 </r>
       <r>    24.7868     0.6512    13.4765 </r>
       <r>    24.9097     0.5764    13.5473 </r>
       <r>    25.0326     0.4025    13.5967 </r>
       <r>    25.1555     0.3715    13.6424 </r>
       <r>    25.2784     0.4113    13.6929 </r>
       <r>    25.4012     0.4374    13.7467 </r>
       <r>    25.5241     0.3735    13.7926 </r>
       <r>    25.6470     0.2807    13.8271 </r>
       <r>    25.7699     0.2111    13.8530 </r>
       <r>    25.8928     0.3032    13.8903 </r>
       <r>    26.0157     0.4631    13.9472 </r>
       <r>    26.1385     0.6660    14.0290 </r>
       <r>    26.2614     0.8171    14.1294 </r>
       <r>    26.3843     0.7792    14.2252 </r>
       <r>    26.5072     0.5897    14.2976 </r>
       <r>    26.6301     0.3712    14.3432 </r>
       <r>    26.7529     0.3427    14.3854 </r>
       <r>    26.8758     0.3129    14.4238 </r>
       <r>    26.9987     0.3819    14.4707 </r>
       <r>    27.1216     0.7934    14.5682 </r>
       <r>    27.2445     0.9803    14.6887 </r>
       <r>    27.3673     0.6618    14.7700 </r>
       <r>    27.4902     0.3262    14.8101 </r>
       <r>    27.6131     0.2746    14.8438 </r>
       <r>    27.7360     0.4235    14.8959 </r>
       <r>    27.8589     0.5023    14.9576 </r>
       <r>    27.9817     0.3763    15.0038 </r>
       <r>    28.1046     0.2386    15.0332 </r>
       <r>    28.2275     0.2312    15.0616 </r>
       <r>    28.3504     0.5516    15.1294 </r>
       <r>    28.4733     0.8624    15.2353 </r>
       <r>    28.5961     0.6821    15.3191 </r>
       <r>    28.7190     0.5013    15.3807 </r>
       <r>    28.8419     0.8514    15.4854 </r>
       <r>    28.9648     1.2422    15.6380 </r>
       <r>    29.0877     1.1303    15.7769 </r>
       <r>    29.2105     0.7175    15.8651 </r>
       <r>    29.3334     0.3010    15.9021 </r>
       <r>    29.4563     0.1638    15.9222 </r>
       <r>    29.5792     0.4418    15.9765 </r>
       <r>    29.7021     0.9379    16.0917 </r>
       <r>    29.8250     1.1879    16.2377 </r>
       <r>    29.9478     0.8833    16.3462 </r>
       <r>    30.0707     0.3655    16.3911 </r>
       <r>    30.1936     0.2102    16.4170 </r>
       <r>    30.3165     0.2239    16.4445 </r>
       <r>    30.4394     0.3793    16.4911 </r>
       <r>    30.5622     0.7529    16.5836 </r>
       <r>    30.6851     0.7666    16.6778 </r>
       <r>    30.8080     0.6813    16.7615 </r>
       <r>    30.9309     0.7278    16.8510 </r>
       <r>    31.0538     0.4097    16.9013 </r>
       <r>    31.1766     0.2488    16.9319 </r>
       <r>    31.2995     0.4953    16.9927 </r>
       <r>    31.4224     0.5177    17.0563 </r>
       <r>    31.5453     0.5155    17.1197 </r>
       <r>    31.6682     0.7492    17.2117 </r>
       <r>    31.7910     0.6883    17.2963 </r>
       <r>    31.9139     0.2709    17.3296 </r>
       <r>    32.0368     0.0118    17.3311 </r>
       <r>    32.1597     0.0340    17.3352 </r>
       <r>    32.2826     0.1212    17.3501 </r>
       <r>    32.4054     0.1209    17.3650 </r>
       <r>    32.5283     0.1435    17.3826 </r>
       <r>    32.6512     0.3635    17.4273 </r>
       <r>    32.7741     0.4887    17.4874 </r>
       <r>    32.8970     0.2931    17.5234 </r>
       <r>    33.0198     0.0994    17.5356 </r>
       <r>    33.1427     0.0102    17.5368 </r>
       <r>    33.2656     0.0542    17.5435 </r>
       <r>    33.3885     0.2825    17.5782 </r>
       <r>    33.5114     0.3666    17.6233 </r>
       <r>    33.6343     0.2976    17.6598 </r>
       <r>    33.7571     0.2874    17.6952 </r>
       <r>    33.8800     0.2347    17.7240 </r>
       <r>    34.0029     0.1926    17.7477 </r>
       <r>    34.1258     0.1316    17.7638 </r>
       <r>    34.2487     0.0872    17.7745 </r>
       <r>    34.3715     0.0976    17.7865 </r>
       <r>    34.4944     0.1754    17.8081 </r>
       <r>    34.6173     0.2347    17.8369 </r>
       <r>    34.7402     0.2862    17.8721 </r>
       <r>    34.8631     0.3034    17.9094 </r>
       <r>    34.9859     0.1973    17.9336 </r>
       <r>    35.1088     0.0452    17.9392 </r>
       <r>    35.2317    -0.0176    17.9370 </r>
       <r>    35.3546     0.0075    17.9379 </r>
       <r>    35.4775     0.1140    17.9519 </r>
       <r>    35.6003     0.1800    17.9741 </r>
       <r>    35.7232     0.0898    17.9851 </r>
       <r>    35.8461     0.0030    17.9855 </r>
       <r>    35.9690    -0.0073    17.9846 </r>
       <r>    36.0919    -0.0022    17.9843 </r>
       <r>    36.2147    -0.0016    17.9841 </r>
       <r>    36.3376     0.0065    17.9849 </r>
       <r>    36.4605     0.0266    17.9882 </r>
       <r>    36.5834     0.0264    17.9914 </r>
       <r>    36.7063     0.0067    17.9922 </r>
       <r>    36.8291     0.0108    17.9936 </r>
       <r>    36.9520     0.0297    17.9972 </r>
       <r>    37.0749     0.0218    17.9999 </r>
       <r>    37.1978     0.0029    18.0002 </r>
       <r>    37.3207    -0.0015    18.0001 </r>
       <r>    37.4436    -0.0004    18.0000 </r>
       <r>    37.5664     0.0000    18.0000 </r>
       <r>    37.6893     0.0000    18.0000 </r>
       <r>    37.8122     0.0000    18.0000 </r>
       <r>    37.9351     0.0000    18.0000 </r>
       <r>    38.0580     0.0000    18.0000 </r>
       <r>    38.1808     0.0000    18.0000 </r>
       <r>    38.3037     0.0000    18.0000 </r>
       <r>    38.4266     0.0000    18.0000 </r>
       <r>    38.5495     0.0000    18.0000 </r>
       <r>    38.6724     0.0000    18.0000 </r>
       <r>    38.7952     0.0000    18.0000 </r>
       <r>    38.9181     0.0000    18.0000 </r>
      </set>
     </set>
    </array>
   </total>
  </dos>
 </calculation>
 <structure name="finalpos" >
  <crystal>
   <varray name="basis" >
    <v>       2.64061956       0.00000000       0.00000000 </v>
    <v>       1.32030978       2.28684362       0.00000000 </v>
    <v>       1.32030978       0.76228121       2.15605685 </v>
   </varray>
   <i name="volume">     13.01974600 </i>
   <varray name="rec_basis" >
    <v>       0.37869900      -0.21864197      -0.15460322 </v>
    <v>       0.00000000       0.43728394      -0.15460322 </v>
    <v>       0.00000000       0.00000000       0.46380966 </v>
   </varray>
  </crystal>
  <varray name="positions" >
   <v>       0.00000000       0.00000000       0.00000000 </v>
  </varray>
 </structure>
</modeling>
