 vasp.5.3.5 31Mar14 (build Jan 09 2015 16:57:47) complex                        
  
 POSCAR found :  1 types and       1 ions
 LDA part: xc-table for Pade appr. of Perdew
 POSCAR found :  1 types and       1 ions
 POSCAR, INCAR and KPOINTS ok, starting setup
 WARNING: small aliasing (wrap around) errors must be expected
 FFT: planning ...
 WAVECAR not read
 entering main loop
       N       E                     dE             d eps       ncg     rms          rms(c)
DAV:   1     0.264222736376E+02    0.26422E+02   -0.42116E+03  1112   0.753E+02
DAV:   2    -0.498514679067E+01   -0.31407E+02   -0.30151E+02  1194   0.160E+02
DAV:   3    -0.525343001604E+01   -0.26828E+00   -0.25289E+00  1282   0.161E+01
DAV:   4    -0.525475211909E+01   -0.13221E-02   -0.13221E-02  1267   0.103E+00
DAV:   5    -0.525476496176E+01   -0.12843E-04   -0.12841E-04  1274   0.823E-02    0.112E+01
DAV:   6    -0.498838580712E+01    0.26638E+00   -0.93415E-01  1112   0.953E+00    0.567E+00
DAV:   7    -0.496522269784E+01    0.23163E-01   -0.31357E-02  1413   0.160E+00    0.250E+00
DAV:   8    -0.496011557977E+01    0.51071E-02   -0.25659E-03  1194   0.558E-01    0.146E-01
DAV:   9    -0.496008396201E+01    0.31618E-04   -0.73986E-05   681   0.913E-02
   1 F= -.49600840E+01 E0= -.49589085E+01  d E =-.496008E+01
 curvature:   0.00 expect dE= 0.000E+00 dE for cont linesearch  0.000E+00
 trial: gam= 0.00000 g(F)=  0.199E-62 g(S)=  0.000E+00 ort = 0.000E+00 (trialstep = 0.100E+01)
 search vector abs. value=  0.100E-09
 reached required accuracy - stopping structural energy minimisation
 writing wavefunctions
