unknown system                          
           1
     2.640620    0.000000    0.000000
     1.320310    2.286844    0.000000
     1.320310    0.762281    2.156057
   Pd
   1
Direct configuration=     1
   0.00000000  0.00000000  0.00000000
