unknown system                          
   1.00000000000000     
     2.718543    0.000000    0.000000
     1.359271    2.354327    0.000000
     1.359271    0.784776    2.219681
   Ag
     1
Direct
  0.000000  0.000000  0.000000
 
   24   24   24
  109.56      105.17      93.392      77.489      60.612      44.700      30.772      19.633      11.918      7.5497    
  5.4782      4.4353      4.1093      4.4353      5.4782      7.5497      11.918      19.633      30.772      44.700    
  60.612      77.489      93.392      105.17      105.17      97.102      83.373      67.228      51.145      36.496    
  24.163      14.939      9.1631      6.2332      4.8037      4.1471      4.1500      4.8069      6.2307      9.1599    
  14.942      24.166      36.493      51.142      67.229      83.376      97.102      105.17      93.394      83.376    
  69.623      54.714      40.389      27.743      17.684      10.837      7.0425      5.2132      4.2596      3.9614    
  4.2596      5.2133      7.0425      10.837      17.684      27.743      40.389      54.714      69.622      83.376    
  93.394      97.101      77.488      67.230      54.717      41.770      29.711      19.598      12.239      7.8092    
  5.5881      4.4082      3.8704      3.8677      4.4053      5.5905      7.8121      12.236      19.596      29.713    
  41.773      54.715      67.227      77.488      83.375      83.374      60.608      51.144      40.390      29.712    
  20.281      13.033      8.3716      5.8840      4.5462      3.8367      3.6211      3.8367      4.5462      5.8840    
  8.3716      13.033      20.281      29.712      40.390      51.144      60.608      67.228      69.624      67.228    
  44.698      36.493      27.742      19.598      13.032      8.5743      6.0507      4.6486      3.8336      3.4755    
  3.4777      3.8360      4.6467      6.0484      8.5761      13.034      19.596      27.740      36.496      44.701    
  51.143      54.715      54.716      51.144      30.773      24.163      17.684      12.239      8.3699      6.0484    
  4.6835      3.8413      3.4068      3.2751      3.4068      3.8413      4.6835      6.0484      8.3699      12.239    
  17.684      24.163      30.773      36.496      40.389      41.770      40.389      36.496      19.634      14.940    
  10.838      7.8111      5.8846      4.6469      3.8395      3.3871      3.1902      3.1888      3.3856      3.8406    
  4.6484      5.8837      7.8102      10.840      14.941      19.632      24.164      27.742      29.713      29.711    
  27.741      24.166      11.917      9.1619      7.0420      5.5893      4.5484      3.8347      3.4062      3.1896    
  3.1249      3.1896      3.4062      3.8347      4.5484      5.5893      7.0420      9.1619      11.917      14.940    
  17.684      19.597      20.283      19.597      17.684      14.940      7.5499      6.2322      5.2113      4.4068    
  3.8368      3.4768      3.2762      3.1892      3.1898      3.2768      3.4765      3.8363      4.4067      5.2112    
  6.2318      7.5501      9.1621      10.839      12.237      13.033      13.033      12.238      10.839      9.1609    
  5.4799      4.8049      4.2596      3.8691      3.6194      3.4767      3.4068      3.3861      3.4068      3.4767    
  3.6194      3.8691      4.2596      4.8050      5.4800      6.2319      7.0425      7.8109      8.3699      8.5750    
  8.3699      7.8109      7.0425      6.2318      4.4354      4.1482      3.9631      3.8689      3.8367      3.8349    
  3.8400      3.8400      3.8348      3.8364      3.8691      3.9639      4.1488      4.4350      4.8049      5.2111    
  5.5894      5.8843      6.0496      6.0495      5.8840      5.5892      5.2115      4.8057      4.1077      4.1488    
  4.2595      4.4065      4.5480      4.6477      4.6834      4.6477      4.5480      4.4065      4.2595      4.1488    
  4.1076      4.1488      4.2595      4.4065      4.5480      4.6477      4.6834      4.6477      4.5480      4.4065    
  4.2595      4.1488      4.4354      4.8057      5.2115      5.5892      5.8840      6.0495      6.0496      5.8843    
  5.5894      5.2111      4.8049      4.4350      4.1488      3.9639      3.8691      3.8364      3.8348      3.8400    
  3.8400      3.8349      3.8367      3.8689      3.9631      4.1482      5.4799      6.2318      7.0425      7.8109    
  8.3699      8.5750      8.3699      7.8109      7.0425      6.2319      5.4800      4.8050      4.2596      3.8691    
  3.6194      3.4767      3.4068      3.3861      3.4068      3.4767      3.6194      3.8691      4.2596      4.8049    
  7.5499      9.1609      10.839      12.238      13.033      13.033      12.237      10.839      9.1621      7.5501    
  6.2318      5.2112      4.4067      3.8363      3.4765      3.2768      3.1898      3.1892      3.2762      3.4768    
  3.8368      4.4068      5.2113      6.2322      11.917      14.940      17.684      19.597      20.283      19.597    
  17.684      14.940      11.917      9.1619      7.0420      5.5893      4.5484      3.8347      3.4062      3.1896    
  3.1249      3.1896      3.4062      3.8347      4.5484      5.5893      7.0420      9.1619      19.634      24.166    
  27.741      29.711      29.713      27.742      24.164      19.632      14.941      10.840      7.8102      5.8837    
  4.6484      3.8406      3.3856      3.1888      3.1902      3.3871      3.8395      4.6469      5.8846      7.8111    
  10.838      14.940      30.773      36.496      40.389      41.770      40.389      36.496      30.773      24.163    
  17.684      12.239      8.3699      6.0484      4.6835      3.8413      3.4068      3.2751      3.4068      3.8413    
  4.6835      6.0484      8.3699      12.239      17.684      24.163      44.698      51.144      54.716      54.715    
  51.143      44.701      36.496      27.740      19.596      13.034      8.5761      6.0484      4.6467      3.8360    
  3.4777      3.4755      3.8336      4.6486      6.0507      8.5743      13.032      19.598      27.742      36.493    
  60.608      67.228      69.624      67.228      60.608      51.144      40.390      29.712      20.281      13.033    
  8.3716      5.8840      4.5462      3.8367      3.6211      3.8367      4.5462      5.8840      8.3716      13.033    
  20.281      29.712      40.390      51.144      77.488      83.374      83.375      77.488      67.227      54.715    
  41.773      29.713      19.596      12.236      7.8121      5.5905      4.4053      3.8677      3.8704      4.4082    
  5.5881      7.8092      12.239      19.598      29.711      41.770      54.717      67.230      93.394      97.101    
  93.394      83.376      69.622      54.714      40.389      27.743      17.684      10.837      7.0425      5.2133    
  4.2596      3.9614      4.2596      5.2132      7.0425      10.837      17.684      27.743      40.389      54.714    
  69.623      83.376      105.17      105.17      97.102      83.376      67.229      51.142      36.493      24.166    
  14.942      9.1599      6.2307      4.8069      4.1500      4.1471      4.8037      6.2332      9.1631      14.939    
  24.163      36.496      51.145      67.228      83.373      97.102      105.17      97.102      83.373      67.228    
  51.145      36.496      24.163      14.939      9.1631      6.2332      4.8037      4.1471      4.1500      4.8069    
  6.2307      9.1599      14.942      24.166      36.493      51.142      67.229      83.376      97.102      105.17    
  97.101      86.520      72.081      56.549      41.730      28.689      18.296      11.178      7.2073      5.3055    
  4.3222      4.0137      4.3220      5.3055      7.2076      11.179      18.296      28.689      41.729      56.548    
  72.081      86.522      97.103      101.03      83.373      72.082      58.485      44.600      31.763      20.981    
  13.056      8.2211      5.7951      4.5426      3.9682      3.9654      4.5396      5.7975      8.2242      13.054    
  20.978      31.765      44.603      58.483      72.080      83.376      89.912      89.910      67.227      56.551    
  44.603      32.854      22.464      14.382      9.0829      6.2295      4.7583      3.9768      3.7381      3.9770    
  4.7583      6.2292      9.0828      14.382      22.465      32.854      44.603      56.550      67.226      74.799    
  77.563      74.800      51.143      41.729      31.765      22.467      14.859      9.5735      6.5384      4.9351    
  4.0118      3.6026      3.6051      4.0145      4.9328      6.5357      9.5756      14.862      22.465      31.763    
  41.731      51.145      58.630      62.825      62.827      58.632      36.494      28.686      20.979      14.383    
  9.5746      6.6479      5.0290      4.0481      3.5374      3.3823      3.5375      4.0482      5.0291      6.6481    
  9.5746      14.383      20.979      28.686      36.495      43.270      47.908      49.562      47.908      43.269    
  24.165      18.295      13.054      9.0820      6.5381      5.0283      4.0591      3.5118      3.2735      3.2719    
  3.5102      4.0607      5.0300      6.5367      9.0804      13.056      18.297      24.164      29.763      34.164    
  36.588      36.586      34.163      29.765      14.941      11.180      8.2215      6.2294      4.9347      4.0468    
  3.5103      3.2394      3.1587      3.2393      3.5102      4.0467      4.9348      6.2298      8.2222      11.181    
  14.941      18.974      22.573      25.061      25.949      25.061      22.574      18.975      9.1622      7.2078    
  5.7961      4.7597      4.0132      3.5377      3.2724      3.1576      3.1582      3.2730      3.5372      4.0126    
  4.7603      5.7967      7.2073      9.1616      11.543      13.975      15.969      17.093      17.093      15.970    
  13.975      11.543      6.2319      5.3040      4.5415      3.9767      3.6037      3.3838      3.2727      3.2391    
  3.2727      3.3841      3.6041      3.9765      4.5408      5.3034      6.2320      7.3688      8.6630      9.8957    
  10.787      11.112      10.787      9.8955      8.6625      7.3682      4.8049      4.3221      3.9670      3.7364    
  3.6041      3.5375      3.5109      3.5109      3.5375      3.6041      3.7364      3.9669      4.3221      4.8049    
  5.3818      5.9902      6.5881      7.0900      7.3801      7.3801      7.0900      6.5881      5.9902      5.3817    
  4.1485      4.0155      3.9665      3.9770      4.0135      4.0469      4.0598      4.0467      4.0131      3.9768    
  3.9668      4.0162      4.1490      4.3681      4.6502      4.9490      5.2096      5.3849      5.4464      5.3848    
  5.2096      4.9494      4.6508      4.3684      4.1489      4.3222      4.5409      4.7599      4.9339      5.0293    
  5.0292      4.9339      4.7601      4.5410      4.3220      4.1487      4.0514      4.0354      4.0825      4.1599    
  4.2331      4.2761      4.2760      4.2330      4.1601      4.0827      4.0353      4.0513      4.8055      5.3039    
  5.7965      6.2292      6.5368      6.6495      6.5375      6.2297      5.7963      5.3033      4.8050      4.3680    
  4.0352      3.8152      3.6893      3.6277      3.6030      3.5970      3.6033      3.6278      3.6889      3.8146    
  4.0350      4.3683      6.2319      7.2074      8.2229      9.0812      9.5746      9.5745      9.0811      8.2230    
  7.2076      6.2319      5.3817      4.6504      4.0827      3.6892      3.4443      3.3093      3.2507      3.2506    
  3.3091      3.4444      3.6893      4.0825      4.6502      5.3818      9.1616      11.180      13.055      14.382    
  14.861      14.381      13.055      11.181      9.1623      7.3690      5.9899      4.9490      4.1604      3.6278    
  3.3088      3.1468      3.0980      3.1465      3.3087      3.6280      4.1609      4.9494      5.9899      7.3685    
  14.941      18.296      20.979      22.466      22.467      20.979      18.296      14.940      11.544      8.6635    
  6.5877      5.2089      4.2335      3.6035      3.2502      3.0971      3.0981      3.2511      3.6026      4.2326    
  5.2098      6.5886      8.6627      11.543      24.165      28.688      31.763      32.853      31.764      28.688    
  24.164      18.973      13.975      9.8966      7.0901      5.3838      4.2760      3.5979      3.2507      3.1455    
  3.2506      3.5981      4.2762      5.3836      7.0894      9.8963      13.975      18.973      36.494      41.730    
  44.602      44.601      41.729      36.496      29.764      22.573      15.969      10.788      7.3811      5.4456    
  4.2751      3.6042      3.3101      3.3081      3.6021      4.2771      5.4478      7.3793      10.786      15.970    
  22.575      29.763      51.142      56.550      58.486      56.550      51.143      43.268      34.164      25.061    
  17.091      11.112      7.3817      5.3848      4.2316      3.6279      3.4459      3.6280      4.2315      5.3847    
  7.3818      11.113      17.092      25.061      34.164      43.268      67.227      72.080      72.082      67.229    
  58.630      47.907      36.588      25.950      17.092      10.786      7.0913      5.2107      4.1588      3.6877    
  3.6905      4.1617      5.2081      7.0883      10.788      17.095      25.948      36.586      47.909      58.632    
  83.375      86.519      83.375      74.801      62.826      49.562      36.587      25.063      15.970      9.8935    
  6.5882      4.9512      4.0826      3.8128      4.0827      4.9512      6.5881      9.8935      15.970      25.063    
  36.587      49.562      62.826      74.802      97.104      97.102      89.910      77.562      62.827      47.906    
  34.162      22.576      13.976      8.6612      5.9890      4.6523      4.0367      4.0337      4.6491      5.9916    
  8.6645      13.974      22.573      34.164      47.909      62.825      77.560      89.912      105.17      101.03    
  89.909      74.800      58.633      43.268      29.762      18.975      11.545      7.3685      5.3799      4.3684    
  4.0532      4.3684      5.3799      7.3685      11.545      18.975      29.762      43.268      58.633      74.800    
  89.909      101.03      93.394      83.376      69.623      54.714      40.389      27.743      17.684      10.837    
  7.0425      5.2132      4.2596      3.9614      4.2596      5.2133      7.0425      10.837      17.684      27.743    
  40.389      54.714      69.622      83.376      93.394      97.101      83.373      72.082      58.485      44.600    
  31.763      20.981      13.056      8.2211      5.7951      4.5426      3.9682      3.9654      4.5396      5.7975    
  8.2242      13.054      20.978      31.765      44.603      58.483      72.080      83.376      89.912      89.910    
  69.621      58.484      46.095      33.963      23.240      14.867      9.3419      6.3538      4.8332      4.0264    
  3.7794      4.0265      4.8332      6.3538      9.3418      14.867      23.240      33.963      46.095      58.484    
  69.621      77.561      80.467      77.561      54.714      44.600      33.964      24.046      15.882      10.144    
  6.8157      5.0909      4.1091      3.6718      3.6742      4.1117      5.0887      6.8130      10.146      15.884    
  24.045      33.962      44.602      54.716      62.825      67.399      67.402      62.827      40.389      31.763    
  23.241      15.884      10.438      7.0769      5.2611      4.1877      3.6246      3.4532      3.6246      4.1878    
  5.2611      7.0769      10.438      15.884      23.241      31.763      40.389      47.909      53.092      54.949    
  53.092      47.909      27.742      20.979      14.866      10.146      7.0791      5.3199      4.2290      3.6076    
  3.3361      3.3343      3.6057      4.2308      5.3220      7.0777      10.144      14.867      20.980      27.740    
  34.163      39.213      42.001      41.999      39.211      34.163      17.685      13.055      9.3393      6.8147    
  5.2619      4.2298      3.6014      3.2837      3.1891      3.2837      3.6014      4.2298      5.2620      6.8147    
  9.3393      13.055      17.685      22.574      26.899      29.876      30.938      29.876      26.899      22.574    
  10.839      8.2228      6.3534      5.0894      4.1868      3.6072      3.2833      3.1434      3.1444      3.2842    
  3.6061      4.1856      5.0902      6.3548      8.2225      10.839      13.975      17.124      19.675      21.103    
  21.105      19.677      17.124      13.975      7.0425      5.7966      4.8349      4.1098      3.6246      3.3356    
  3.1882      3.1436      3.1882      3.3356      3.6246      4.1099      4.8349      5.7967      7.0425      8.6629    
  10.511      12.250      13.495      13.946      13.495      12.250      10.511      8.6628      5.2114      4.5415    
  4.0265      3.6727      3.4544      3.3352      3.2838      3.2837      3.3352      3.4550      3.6732      4.0262    
  4.5408      5.2110      5.9904      6.8702      7.7883      8.5711      9.0244      9.0241      8.5706      7.7879    
  6.8699      5.9902      4.2597      3.9670      3.7777      3.6731      3.6247      3.6065      3.6023      3.6065    
  3.6247      3.6731      3.7776      3.9669      4.2597      4.6503      5.1024      5.5540      5.9461      6.2229    
  6.3238      6.2229      5.9461      5.5540      5.1023      4.6503      3.9633      3.9667      4.0264      4.1105    
  4.1865      4.2301      4.2297      4.1859      4.1103      4.0264      3.9668      3.9637      4.0355      4.1783    
  4.3660      4.5581      4.7126      4.7975      4.7973      4.7124      4.5587      4.3668      4.1783      4.0349    
  4.2596      4.5410      4.8349      5.0896      5.2611      5.3213      5.2611      5.0897      4.8349      4.5410    
  4.2596      4.0353      3.8916      3.8267      3.8190      3.8396      3.8628      3.8724      3.8628      3.8396    
  3.8191      3.8267      3.8916      4.0353      5.2114      5.7964      6.3539      6.8141      7.0783      7.0786    
  6.8147      6.3543      5.7963      5.2110      4.6504      4.1782      3.8265      3.5931      3.4541      3.3803    
  3.3493      3.3494      3.3804      3.4538      3.5925      3.8262      4.1784      4.6510      7.0426      8.2229    
  9.3400      10.145      10.438      10.145      9.3400      8.2230      7.0427      5.9903      5.1023      4.3661    
  3.8192      3.4540      3.2348      3.1222      3.0880      3.1222      3.2348      3.4540      3.8192      4.3661    
  5.1022      5.9902      10.839      13.056      14.866      15.883      15.883      14.866      13.055      10.839    
  8.6635      6.8706      5.5537      4.5579      3.8401      3.3806      3.1219      3.0089      3.0095      3.1225    
  3.3801      3.8398      4.5589      5.5544      6.8695      8.6622      17.684      20.980      23.241      24.045    
  23.241      20.980      17.684      13.974      10.511      7.7891      5.9461      4.7117      3.8628      3.3501    
  3.0879      3.0085      3.0879      3.3501      3.8628      4.7117      5.9461      7.7892      10.511      13.974    
  27.740      31.764      33.964      33.963      31.763      27.742      22.575      17.123      12.249      8.5718    
  6.2237      4.7967      3.8715      3.3502      3.1230      3.1214      3.3486      3.8730      4.7981      6.2219    
  8.5700      12.251      17.125      22.574      40.387      44.601      46.095      44.601      40.387      34.163    
  26.901      19.676      13.493      9.0243      6.3252      4.7974      3.8615      3.3804      3.2363      3.3804    
  3.8615      4.7974      6.3252      9.0243      13.493      19.676      26.901      34.163      54.714      58.484    
  58.485      54.716      47.907      39.211      29.877      21.105      13.945      9.0231      6.2240      4.7136    
  3.8387      3.4527      3.4551      3.8412      4.7114      6.2215      9.0254      13.948      21.103      29.874    
  39.213      47.909      69.622      72.079      69.623      62.827      53.092      41.999      30.937      21.106    
  13.495      8.5691      5.9461      4.5603      3.8191      3.5909      3.8191      4.5603      5.9461      8.5690    
  13.495      21.106      30.937      41.999      53.092      62.827      83.375      83.373      77.560      67.402    
  54.952      41.999      29.875      19.678      12.251      7.7866      5.5527      4.3679      3.8278      3.8249    
  4.3648      5.5553      7.7896      12.249      19.675      29.877      42.002      54.950      67.399      77.562    
  93.396      89.911      80.464      67.401      53.094      39.211      26.898      17.124      10.513      6.8698    
  5.1006      4.1784      3.8934      4.1784      5.1006      6.8698      10.513      17.124      26.898      39.211    
  53.094      67.401      80.464      89.911      97.104      89.912      77.560      62.825      47.909      34.164    
  22.573      13.974      8.6645      5.9916      4.6491      4.0337      4.0367      4.6523      5.9890      8.6612    
  13.976      22.576      34.162      47.906      62.827      77.562      89.910      97.102      77.488      67.230    
  54.717      41.770      29.711      19.598      12.239      7.8092      5.5881      4.4082      3.8704      3.8677    
  4.4053      5.5905      7.8121      12.236      19.596      29.713      41.773      54.715      67.227      77.488    
  83.375      83.374      67.227      56.551      44.603      32.854      22.464      14.382      9.0829      6.2295    
  4.7583      3.9768      3.7381      3.9770      4.7583      6.2292      9.0828      14.382      22.465      32.854    
  44.603      56.550      67.226      74.799      77.563      74.800      54.714      44.600      33.964      24.046    
  15.882      10.144      6.8157      5.0909      4.1091      3.6718      3.6742      4.1117      5.0887      6.8130    
  10.146      15.884      24.045      33.962      44.602      54.716      62.825      67.399      67.402      62.827    
  41.771      32.852      24.045      16.423      10.752      7.2340      5.3428      4.2369      3.6554      3.4782    
  3.6553      4.2369      5.3428      7.2337      10.752      16.423      24.046      32.853      41.771      49.564    
  54.950      56.884      54.952      49.565      29.713      22.465      15.882      10.753      7.3900      5.4784    
  4.3218      3.6594      3.3697      3.3678      3.6575      4.3235      5.4803      7.3883      10.751      15.883    
  22.467      29.712      36.586      42.001      44.997      44.996      42.000      36.588      19.598      14.382    
  10.144      7.2353      5.4801      4.3534      3.6633      3.3137      3.2094      3.3135      3.6633      4.3537    
  5.4803      7.2352      10.144      14.381      19.598      25.061      29.875      33.185      34.365      33.184    
  29.874      25.061      12.238      9.0817      6.8142      5.3423      4.3231      3.6647      3.2967      3.1378    
  3.1387      3.2976      3.6638      4.3221      5.3431      6.8150      9.0807      12.237      15.970      19.676    
  22.659      24.323      24.324      22.660      19.675      15.969      7.8104      6.2298      5.0898      4.2351    
  3.6586      3.3141      3.1383      3.0850      3.1383      3.3141      3.6583      4.2348      5.0898      6.2302    
  7.8109      9.8952      12.250      14.442      15.997      16.559      15.997      14.442      12.250      9.8949    
  5.5892      4.7601      4.1102      3.6552      3.3687      3.2087      3.1384      3.1382      3.2084      3.3689    
  3.6554      4.1100      4.7599      5.5894      6.5883      7.7884      9.0560      10.133      10.754      10.753    
  10.133      9.0562      7.7886      6.5880      4.4070      3.9768      3.6728      3.4795      3.3686      3.3135    
  3.2972      3.3136      3.3688      3.4798      3.6731      3.9768      4.4065      4.9489      5.5540      6.1682    
  6.7380      7.1530      7.3058      7.1528      6.7375      6.1676      5.5540      4.9495      3.8692      3.7365    
  3.6731      3.6553      3.6584      3.6642      3.6642      3.6583      3.6553      3.6731      3.7364      3.8691    
  4.0826      4.3661      4.6847      4.9876      5.2230      5.3511      5.3511      5.2230      4.9877      4.6847    
  4.3660      4.0826      3.8688      3.9771      4.1106      4.2355      4.3227      4.3538      4.3225      4.2351    
  4.1102      3.9769      3.8691      3.8150      3.8266      3.8953      3.9958      4.0964      4.1689      4.1951    
  4.1689      4.0967      3.9963      3.8955      3.8263      3.8144      4.4065      4.7600      5.0898      5.3427    
  5.4794      5.4795      5.3427      5.0897      4.7600      4.4066      4.0826      3.8265      3.6529      3.5536    
  3.5068      3.4896      3.4852      3.4853      3.4897      3.5067      3.5534      3.6530      3.8267      4.0826    
  5.5893      6.2292      6.8140      7.2350      7.3891      7.2352      6.8145      6.2297      5.5893      4.9489    
  4.3661      3.8952      3.5535      3.3282      3.1932      3.1232      3.1016      3.1230      3.1930      3.3279    
  3.5532      3.8952      4.3666      4.9495      7.8110      9.0813      10.145      10.752      10.752      10.145    
  9.0810      7.8107      6.5883      5.5541      4.6846      3.9957      3.5069      3.1933      3.0142      2.9344    
  2.9346      3.0144      3.1931      3.5067      3.9959      4.6848      5.5538      6.5880      12.238      14.382    
  15.883      16.421      15.882      14.382      12.237      9.8952      7.7885      6.1686      4.9877      4.0961    
  3.4897      3.1236      2.9346      2.8768      2.9345      3.1237      3.4899      4.0964      4.9877      6.1682    
  7.7879      9.8949      19.597      22.467      24.046      24.045      22.466      19.597      15.970      12.250    
  9.0557      6.7385      5.2234      4.1683      3.4848      3.1021      2.9350      2.9340      3.1011      3.4858    
  4.1693      5.2225      6.7375      9.0566      12.251      15.969      29.711      32.854      33.964      32.854    
  29.712      25.061      19.677      14.441      10.132      7.1530      5.3521      4.1949      3.4842      3.1230    
  3.0153      3.1232      3.4842      4.1946      5.3518      7.1529      10.132      14.442      19.677      25.061    
  41.771      44.601      44.602      41.772      36.586      29.875      22.661      15.998      10.753      7.3049    
  5.3520      4.1699      3.4888      3.1921      3.1941      3.4909      4.1679      5.3499      7.3066      10.755    
  15.996      22.659      29.877      36.588      54.716      56.549      54.715      49.564      42.000      33.183    
  24.324      16.561      10.753      7.1513      5.2230      4.0983      3.5068      3.3265      3.5068      4.0983    
  5.2230      7.1514      10.754      16.561      24.323      33.183      42.000      49.565      67.229      67.227    
  62.824      54.951      44.997      34.363      24.322      15.998      10.134      6.7363      4.9864      3.9974    
  3.5547      3.5520      3.9946      4.9888      6.7392      10.132      15.995      24.324      34.365      44.995    
  54.949      62.827      77.489      74.799      67.398      56.885      44.998      33.184      22.658      14.442    
  9.0578      6.1677      4.6829      3.8953      3.6547      3.8953      4.6829      6.1677      9.0578      14.442    
  22.658      33.184      44.998      56.885      67.398      74.799      83.375      77.562      67.399      54.950    
  42.002      29.877      19.675      12.249      7.7896      5.5553      4.3648      3.8249      3.8278      4.3679    
  5.5527      7.7866      12.251      19.678      29.875      41.999      54.952      67.402      77.560      83.373    
  83.375      74.802      62.826      49.562      36.587      25.063      15.970      9.8935      6.5881      4.9512    
  4.0827      3.8128      4.0826      4.9512      6.5882      9.8935      15.970      25.063      36.587      49.562    
  62.826      74.801      83.375      86.519      60.608      51.144      40.390      29.712      20.281      13.033    
  8.3716      5.8840      4.5462      3.8367      3.6211      3.8367      4.5462      5.8840      8.3716      13.033    
  20.281      29.712      40.390      51.144      60.608      67.228      69.624      67.228      51.143      41.729    
  31.765      22.467      14.859      9.5735      6.5384      4.9351      4.0118      3.6026      3.6051      4.0145    
  4.9328      6.5357      9.5756      14.862      22.465      31.763      41.731      51.145      58.630      62.825    
  62.827      58.632      40.389      31.763      23.241      15.884      10.438      7.0769      5.2611      4.1877    
  3.6246      3.4532      3.6246      4.1878      5.2611      7.0769      10.438      15.884      23.241      31.763    
  40.389      47.909      53.092      54.949      53.092      47.909      29.713      22.465      15.882      10.753    
  7.3900      5.4784      4.3218      3.6594      3.3697      3.3678      3.6575      4.3235      5.4803      7.3883    
  10.751      15.883      22.467      29.712      36.586      42.001      44.997      44.996      42.000      36.588    
  20.283      14.860      10.437      7.3892      5.5574      4.3973      3.6851      3.3241      3.2165      3.3241    
  3.6851      4.3973      5.5574      7.3892      10.437      14.860      20.283      25.949      30.936      34.364    
  35.586      34.364      30.936      25.949      13.034      9.5751      7.0778      5.4788      4.3978      3.6969    
  3.3048      3.1357      3.1367      3.3058      3.6959      4.3969      5.4800      7.0791      9.5740      13.032    
  17.093      21.105      24.323      26.115      26.116      24.323      21.104      17.093      8.3699      6.5378    