unknown system                          
   1.00000000000000     
     2.718543    0.000000    0.000000
     1.359271    2.354327    0.000000
     1.359271    0.784776    2.219681
   Ag
     1
Direct
  0.000000  0.000000  0.000000
 
   24   24   24
 0.10956302115E+03 0.10516781085E+03 0.93392219987E+02 0.77488976767E+02 0.60611514139E+02
 0.44699519597E+02 0.30771636762E+02 0.19633018346E+02 0.11917776400E+02 0.75497311982E+01
 0.54782479907E+01 0.44353100001E+01 0.41092533005E+01 0.44353100001E+01 0.54782479907E+01
 0.75497311982E+01 0.11917776400E+02 0.19633018346E+02 0.30771636762E+02 0.44699519597E+02
 0.60611514139E+02 0.77488976767E+02 0.93392219987E+02 0.10516781085E+03 0.10516899107E+03
 0.97102262557E+02 0.83373061199E+02 0.67227525061E+02 0.51145397919E+02 0.36495680400E+02
 0.24163184161E+02 0.14939376359E+02 0.91630774472E+01 0.62332319992E+01 0.48036989837E+01
 0.41470927235E+01 0.41500144106E+01 0.48068590834E+01 0.62306846693E+01 0.91599076619E+01
 0.14941571140E+02 0.24166073670E+02 0.36493305943E+02 0.51142014426E+02 0.67229110126E+02
 0.83376219630E+02 0.97101743597E+02 0.10516759709E+03 0.93393867991E+02 0.83375954008E+02
 0.69622611072E+02 0.54713676055E+02 0.40388583600E+02 0.27742837262E+02 0.17684349775E+02
 0.10837094378E+02 0.70425115727E+01 0.52132401151E+01 0.42596276094E+01 0.39614166619E+01
 0.42596448848E+01 0.52132503677E+01 0.70424955059E+01 0.10837061898E+02 0.17684331706E+02
 0.27742846409E+02 0.40388592925E+02 0.54713633282E+02 0.69622490989E+02 0.83375795318E+02
 0.93393754132E+02 0.97101211217E+02 0.77487753746E+02 0.67229928297E+02 0.54716611670E+02
 0.41769639510E+02 0.29710678212E+02 0.19598351241E+02 0.12238630715E+02 0.78092110947E+01
 0.55880545105E+01 0.44081884934E+01 0.38703720978E+01 0.38676593309E+01 0.44052878116E+01
 0.55904533496E+01 0.78120702826E+01 0.12236487370E+02 0.19595794244E+02 0.29713129162E+02
 0.41772690776E+02 0.54714676616E+02 0.67226727195E+02 0.77488436147E+02 0.83375305745E+02
 0.83373816395E+02 0.60608199142E+02 0.51144217705E+02 0.40390250593E+02 0.29711901233E+02
 0.20280617562E+02 0.13033027143E+02 0.83716044031E+01 0.58839987056E+01 0.45462104357E+01
 0.38366536804E+01 0.36210634958E+01 0.38366647296E+01 0.45462216106E+01 0.58839988872E+01
 0.83715939180E+01 0.13033018587E+02 0.20280626400E+02 0.29711934815E+02 0.40390300513E+02
 0.51144269651E+02 0.60608239674E+02 0.67227950216E+02 0.69624157981E+02 0.67227929912E+02
 0.44698462923E+02 0.36493443511E+02 0.27742181343E+02 0.19598184894E+02 0.13031970468E+02
 0.85743470131E+01 0.60506689967E+01 0.46486176812E+01 0.38336384436E+01 0.34755153255E+01
 0.34777451034E+01 0.38360157371E+01 0.46466672941E+01 0.60483900408E+01 0.85760720971E+01
 0.13033789995E+02 0.19595931240E+02 0.27739924353E+02 0.36495587695E+02 0.44701218302E+02
 0.51143212977E+02 0.54714842962E+02 0.54716402551E+02 0.51144251314E+02 0.30773284767E+02
 0.24163145002E+02 0.17684349775E+02 0.12238627067E+02 0.83699374106E+01 0.60483929495E+01
 0.46834706544E+01 0.38413207728E+01 0.34067907131E+01 0.32751197330E+01 0.34067765781E+01
 0.38413076900E+01 0.46834700075E+01 0.60483955698E+01 0.83699195859E+01 0.12238578248E+02
 0.17684284908E+02 0.24163104440E+02 0.30773292959E+02 0.36495750393E+02 0.40388633520E+02
 0.41770248383E+02 0.40388592925E+02 0.36495705530E+02 0.19633643688E+02 0.14939931231E+02
 0.10838181630E+02 0.78110594582E+01 0.58846240482E+01 0.46469356641E+01 0.38394760577E+01
 0.33871360566E+01 0.31902365678E+01 0.31888055480E+01 0.33855722987E+01 0.38406278437E+01
 0.46483618807E+01 0.58837143827E+01 0.78102293860E+01 0.10839708003E+02 0.14940972757E+02
 0.19631741258E+02 0.24163698470E+02 0.27741606370E+02 0.29712560158E+02 0.29711280799E+02
 0.27740508472E+02 0.24165518799E+02 0.11916676174E+02 0.91618972329E+01 0.70419637944E+01
 0.55892775315E+01 0.45484252065E+01 0.38346951182E+01 0.34062429348E+01 0.31896112252E+01
 0.31248537037E+01 0.31896052510E+01 0.34062391212E+01 0.38347041341E+01 0.45484486999E+01
 0.55893115531E+01 0.70419888582E+01 0.91619026221E+01 0.11916654698E+02 0.14940347414E+02
 0.17683737130E+02 0.19596987914E+02 0.20282841170E+02 0.19597017265E+02 0.17683783928E+02
 0.14940390926E+02 0.75499158829E+01 0.62322364697E+01 0.52113428361E+01 0.44067807877E+01
 0.38368383651E+01 0.34767566848E+01 0.32761544209E+01 0.31892462058E+01 0.31897899357E+01
 0.32768432853E+01 0.34765072940E+01 0.38362637185E+01 0.44066926772E+01 0.52112223649E+01
 0.62317501924E+01 0.75500824161E+01 0.91620873069E+01 0.10839267346E+02 0.12237174191E+02
 0.13032548636E+02 0.13033203272E+02 0.12237895076E+02 0.10838589808E+02 0.91609031914E+01
 0.54798959949E+01 0.48049334259E+01 0.42596276094E+01 0.38690948489E+01 0.36193965033E+01
 0.34767426568E+01 0.34067765781E+01 0.33861434133E+01 0.34067868995E+01 0.34767462067E+01
 0.36193782324E+01 0.38690665867E+01 0.42596165921E+01 0.48049625556E+01 0.54799636439E+01
 0.62318806492E+01 0.70425366366E+01 0.78109089565E+01 0.83699195859E+01 0.85749611946E+01
 0.83699269255E+01 0.78109014896E+01 0.70424955059E+01 0.62318106556E+01 0.44353568201E+01
 0.41482261178E+01 0.39630824361E+01 0.38689291718E+01 0.38367115496E+01 0.38349122426E+01
 0.38400414974E+01 0.38400493211E+01 0.38347509541E+01 0.38364015832E+01 0.38690739946E+01
 0.39638841727E+01 0.41488287975E+01 0.44349879656E+01 0.48048615077E+01 0.52110845001E+01
 0.55893583731E+01 0.58842929053E+01 0.60495681224E+01 0.60494935353E+01 0.58840457072E+01
 0.55891835087E+01 0.52114909535E+01 0.48057256892E+01 0.41077104527E+01 0.41488341963E+01
 0.42595397285E+01 0.44065108326E+01 0.45479937595E+01 0.46477239687E+01 0.46833648512E+01
 0.46477365382E+01 0.45480060779E+01 0.44065079924E+01 0.42595114358E+01 0.41487819775E+01
 0.41076488532E+01 0.41487819775E+01 0.42595114358E+01 0.44065079924E+01 0.45480060779E+01
 0.46477365382E+01 0.46833648512E+01 0.46477239687E+01 0.45479937595E+01 0.44065108326E+01
 0.42595397285E+01 0.41488341963E+01 0.44353568201E+01 0.48057256892E+01 0.52114909535E+01
 0.55891835087E+01 0.58840457072E+01 0.60494935353E+01 0.60495681224E+01 0.58842929053E+01
 0.55893583731E+01 0.52110845001E+01 0.48048615077E+01 0.44349879656E+01 0.41488287975E+01
 0.39638841727E+01 0.38690739946E+01 0.38364015832E+01 0.38347509541E+01 0.38400493211E+01
 0.38400414974E+01 0.38349122426E+01 0.38367115496E+01 0.38689291718E+01 0.39630824361E+01
 0.41482261178E+01 0.54798959949E+01 0.62318106556E+01 0.70424955059E+01 0.78109014896E+01
 0.83699269255E+01 0.85749611946E+01 0.83699195859E+01 0.78109089565E+01 0.70425366366E+01
 0.62318806492E+01 0.54799636439E+01 0.48049625556E+01 0.42596165921E+01 0.38690665867E+01
 0.36193782324E+01 0.34767462067E+01 0.34067868995E+01 0.33861434133E+01 0.34067765781E+01
 0.34767426568E+01 0.36193965034E+01 0.38690948489E+01 0.42596276094E+01 0.48049334259E+01
 0.75499158829E+01 0.91609031914E+01 0.10838589808E+02 0.12237895076E+02 0.13033203272E+02
 0.13032548636E+02 0.12237174191E+02 0.10839267346E+02 0.91620873069E+01 0.75500824161E+01
 0.62317501924E+01 0.52112223649E+01 0.44066926772E+01 0.38362637185E+01 0.34765072940E+01
 0.32768432853E+01 0.31897899357E+01 0.31892462058E+01 0.32761544209E+01 0.34767566848E+01
 0.38368383651E+01 0.44067807877E+01 0.52113428361E+01 0.62322364697E+01 0.11916676174E+02
 0.14940390926E+02 0.17683783928E+02 0.19597017265E+02 0.20282841170E+02 0.19596987914E+02
 0.17683737130E+02 0.14940347414E+02 0.11916654698E+02 0.91619026221E+01 0.70419888582E+01
 0.55893115531E+01 0.45484486999E+01 0.38347041341E+01 0.34062391212E+01 0.31896052510E+01
 0.31248537037E+01 0.31896112252E+01 0.34062429348E+01 0.38346951182E+01 0.45484252065E+01
 0.55892775315E+01 0.70419637944E+01 0.91618972329E+01 0.19633643688E+02 0.24165518799E+02
 0.27740508472E+02 0.29711280799E+02 0.29712560158E+02 0.27741606370E+02 0.24163698470E+02
 0.19631741258E+02 0.14940972757E+02 0.10839708003E+02 0.78102293860E+01 0.58837143827E+01
 0.46483618807E+01 0.38406278437E+01 0.33855722987E+01 0.31888055480E+01 0.31902365678E+01
 0.33871360566E+01 0.38394760577E+01 0.46469356641E+01 0.58846240482E+01 0.78110594582E+01
 0.10838181630E+02 0.14939931231E+02 0.30773284767E+02 0.36495705530E+02 0.40388592925E+02
 0.41770248383E+02 0.40388633520E+02 0.36495750393E+02 0.30773292959E+02 0.24163104440E+02
 0.17684284908E+02 0.12238578248E+02 0.83699195859E+01 0.60483955698E+01 0.46834700075E+01
 0.38413076900E+01 0.34067765781E+01 0.32751197330E+01 0.34067907131E+01 0.38413207728E+01
 0.46834706544E+01 0.60483929495E+01 0.83699374106E+01 0.12238627067E+02 0.17684349775E+02
 0.24163145002E+02 0.44698462923E+02 0.51144251314E+02 0.54716402551E+02 0.54714842962E+02
 0.51143212977E+02 0.44701218302E+02 0.36495587695E+02 0.27739924353E+02 0.19595931240E+02
 0.13033789995E+02 0.85760720971E+01 0.60483900408E+01 0.46466672941E+01 0.38360157371E+01
 0.34777451034E+01 0.34755153255E+01 0.38336384436E+01 0.46486176812E+01 0.60506689967E+01
 0.85743470131E+01 0.13031970468E+02 0.19598184894E+02 0.27742181343E+02 0.36493443511E+02
 0.60608199142E+02 0.67227929912E+02 0.69624157981E+02 0.67227950216E+02 0.60608239674E+02
 0.51144269651E+02 0.40390300513E+02 0.29711934815E+02 0.20280626400E+02 0.13033018587E+02
 0.83715939180E+01 0.58839988872E+01 0.45462216106E+01 0.38366647296E+01 0.36210634958E+01
 0.38366536804E+01 0.45462104357E+01 0.58839987056E+01 0.83716044031E+01 0.13033027143E+02
 0.20280617562E+02 0.29711901233E+02 0.40390250593E+02 0.51144217705E+02 0.77487753746E+02
 0.83373816395E+02 0.83375305745E+02 0.77488436147E+02 0.67226727195E+02 0.54714676616E+02
 0.41772690776E+02 0.29713129162E+02 0.19595794244E+02 0.12236487370E+02 0.78120702826E+01
 0.55904533496E+01 0.44052878116E+01 0.38676593309E+01 0.38703720978E+01 0.44081884934E+01
 0.55880545105E+01 0.78092110947E+01 0.12238630715E+02 0.19598351241E+02 0.29710678212E+02
 0.41769639510E+02 0.54716611670E+02 0.67229928297E+02 0.93393867991E+02 0.97101211217E+02
 0.93393754132E+02 0.83375795318E+02 0.69622490989E+02 0.54713633282E+02 0.40388592925E+02
 0.27742846409E+02 0.17684331706E+02 0.10837061898E+02 0.70424955059E+01 0.52132503677E+01
 0.42596448848E+01 0.39614166619E+01 0.42596276094E+01 0.52132401151E+01 0.70425115727E+01
 0.10837094378E+02 0.17684349775E+02 0.27742837262E+02 0.40388583600E+02 0.54713676055E+02
 0.69622611072E+02 0.83375954008E+02 0.10516899107E+03 0.10516759709E+03 0.97101743597E+02
 0.83376219630E+02 0.67229110126E+02 0.51142014426E+02 0.36493305943E+02 0.24166073670E+02
 0.14941571140E+02 0.91599076619E+01 0.62306846693E+01 0.48068590834E+01 0.41500144106E+01
 0.41470927235E+01 0.48036989837E+01 0.62332319992E+01 0.91630774472E+01 0.14939376359E+02
 0.24163184161E+02 0.36495680400E+02 0.51145397919E+02 0.67227525061E+02 0.83373061199E+02
 0.97102262557E+02 0.10516899107E+03 0.97102262557E+02 0.83373061199E+02 0.67227525061E+02
 0.51145397919E+02 0.36495680400E+02 0.24163184161E+02 0.14939376359E+02 0.91630774472E+01
 0.62332319992E+01 0.48036989837E+01 0.41470927235E+01 0.41500144106E+01 0.48068590834E+01
 0.62306846693E+01 0.91599076619E+01 0.14941571140E+02 0.24166073670E+02 0.36493305943E+02
 0.51142014426E+02 0.67229110126E+02 0.83376219630E+02 0.97101743597E+02 0.10516759709E+03
 0.97100838561E+02 0.86520080861E+02 0.72080509672E+02 0.56549087755E+02 0.41730170058E+02
 0.28689276923E+02 0.18296038281E+02 0.11178484535E+02 0.72073341127E+01 0.53055380678E+01
 0.43221580999E+01 0.40136824336E+01 0.43219514127E+01 0.53055253231E+01 0.72075764359E+01
 0.11178627592E+02 0.18295869314E+02 0.28688724171E+02 0.41729138666E+02 0.56548085008E+02
 0.72080866064E+02 0.86522299091E+02 0.97103144725E+02 0.10102949518E+03 0.83372949296E+02
 0.72081560831E+02 0.58485419156E+02 0.44600354241E+02 0.31762929134E+02 0.20980569018E+02
 0.13056213921E+02 0.82210959900E+01 0.57950604885E+01 0.45426261900E+01 0.39682028632E+01
 0.39654031312E+01 0.45396191671E+01 0.57975473950E+01 0.82241719653E+01 0.13054131011E+02
 0.20977657820E+02 0.31764560021E+02 0.44602512827E+02 0.58483385332E+02 0.72079635778E+02
 0.83375581680E+02 0.89912186094E+02 0.89909743669E+02 0.67227156175E+02 0.56550778376E+02
 0.44603163062E+02 0.32853511106E+02 0.22464204057E+02 0.14381752958E+02 0.90828631891E+01
 0.62294800294E+01 0.47583414234E+01 0.39767847879E+01 0.37380670783E+01 0.39770425248E+01
 0.47583404189E+01 0.62291699359E+01 0.90827808978E+01 0.14382107715E+02 0.22464644057E+02
 0.32853792733E+02 0.44603282218E+02 0.56550494332E+02 0.67226271969E+02 0.74799012578E+02
 0.77562513985E+02 0.74799912731E+02 0.51143127080E+02 0.41729180134E+02 0.31765273805E+02
 0.22466949711E+02 0.14858896463E+02 0.95734944054E+01 0.65383859586E+01 0.49350537632E+01
 0.40118229871E+01 0.36026153207E+01 0.36051124489E+01 0.40144649569E+01 0.49327833920E+01
 0.65357481993E+01 0.95756249137E+01 0.14861603044E+02 0.22465181274E+02 0.31762855237E+02
 0.41730835631E+02 0.51145199470E+02 0.58630139706E+02 0.62824715625E+02 0.62826645823E+02
 0.58631949617E+02 0.36494364249E+02 0.28686223466E+02 0.20979432119E+02 0.14383138811E+02
 0.95745921337E+01 0.66479043786E+01 0.50290110262E+01 0.40481280080E+01 0.35373950615E+01
 0.33823032371E+01 0.35374554582E+01 0.40482072339E+01 0.50291344559E+01 0.66480574362E+01
 0.95745639285E+01 0.14382743362E+02 0.20978899584E+02 0.28686066385E+02 0.36494801450E+02
 0.43269764227E+02 0.47908082872E+02 0.49562263132E+02 0.47907573940E+02 0.43269043771E+02
 0.24165123014E+02 0.18295221108E+02 0.13054225125E+02 0.90819839928E+01 0.65380881465E+01
 0.50282739051E+01 0.40591270719E+01 0.35118376539E+01 0.32735010733E+01 0.32718924335E+01
 0.35101737704E+01 0.40606601557E+01 0.50299861911E+01 0.65367110460E+01 0.90803968310E+01
 0.13055631097E+02 0.18296808074E+02 0.24163710196E+02 0.29762798479E+02 0.34163619397E+02
 0.36587551445E+02 0.36586317777E+02 0.34162619596E+02 0.29764540055E+02 0.14941447714E+02
 0.11180276247E+02 0.82215324265E+01 0.62294463320E+01 0.49347438731E+01 0.40468330871E+01
 0.35103352270E+01 0.32394421377E+01 0.31586674675E+01 0.32393295059E+01 0.35101764513E+01
 0.40466932067E+01 0.49347539952E+01 0.62298040980E+01 0.82221894913E+01 0.11180737759E+02
 0.14941202532E+02 0.18973727956E+02 0.22573270340E+02 0.25060749253E+02 0.25949157855E+02
 0.25061247601E+02 0.22574171993E+02 0.18974590854E+02 0.91621966827E+01 0.72078009380E+01
 0.57960608469E+01 0.47596774935E+01 0.40132130618E+01 0.35377468414E+01 0.32724418209E+01
 0.31575581354E+01 0.31581523498E+01 0.32730397037E+01 0.35371689495E+01 0.40126433916E+01
 0.47603017743E+01 0.57966983139E+01 0.72072582720E+01 0.91616357552E+01 0.11543406336E+02
 0.13975142385E+02 0.15969266586E+02 0.17092595941E+02 0.17093240421E+02 0.15969974808E+02
 0.13974647372E+02 0.11542840767E+02 0.62318963640E+01 0.53040125014E+01 0.45415257144E+01
 0.39766615365E+01 0.36036971882E+01 0.33838311275E+01 0.32726585360E+01 0.32391041395E+01
 0.32726649605E+01 0.33841129661E+01 0.36040755425E+01 0.39765446235E+01 0.45408228661E+01
 0.53034158272E+01 0.62319835633E+01 0.73688248353E+01 0.86630120327E+01 0.98957462145E+01
 0.10786781113E+02 0.11111939191E+02 0.10786689232E+02 0.98954656241E+01 0.86624627249E+01
 0.73682419973E+01 0.48048814050E+01 0.43220811891E+01 0.39669712744E+01 0.37364483522E+01
 0.36040600146E+01 0.35374619935E+01 0.35109309775E+01 0.35109339606E+01 0.35374670477E+01
 0.36040502902E+01 0.37364098062E+01 0.39669315367E+01 0.43220855555E+01 0.48049315187E+01
 0.53817602968E+01 0.59902312705E+01 0.65881481745E+01 0.70900492594E+01 0.73801272629E+01
 0.73801032122E+01 0.70900085723E+01 0.65881307845E+01 0.59902160531E+01 0.53817130729E+01
 0.41485205377E+01 0.40154723334E+01 0.39664830235E+01 0.39770094316E+01 0.40135098688E+01
 0.40469111415E+01 0.40598032727E+01 0.40466938110E+01 0.40131053741E+01 0.39767681165E+01
 0.39668213485E+01 0.40162209723E+01 0.41489569454E+01 0.43681172084E+01 0.46501748765E+01
 0.49489885007E+01 0.52095518380E+01 0.53848780738E+01 0.54464394627E+01 0.53847563852E+01
 0.52095801616E+01 0.49494252571E+01 0.46508436942E+01 0.43684123058E+01 0.41489038003E+01
 0.43221947455E+01 0.45408523446E+01 0.47599042958E+01 0.49339436208E+01 0.50292604904E+01
 0.50291592309E+01 0.49338730693E+01 0.47600719284E+01 0.45409729034E+01 0.43220242883E+01
 0.41487288923E+01 0.40513504179E+01 0.40353903706E+01 0.40825063853E+01 0.41599381609E+01
 0.42331465244E+01 0.42761220508E+01 0.42759871430E+01 0.42330164685E+01 0.41600917954E+01
 0.40826803962E+01 0.40353077820E+01 0.40512634176E+01 0.48055160811E+01 0.53038662578E+01
 0.57964547308E+01 0.62291859336E+01 0.65368291914E+01 0.66494518276E+01 0.65374830695E+01
 0.62297173009E+01 0.57963224188E+01 0.53032823282E+01 0.48049660656E+01 0.43680404982E+01
 0.40352471295E+01 0.38151750152E+01 0.36893056559E+01 0.36277242995E+01 0.36029699351E+01
 0.35970027630E+01 0.36033327105E+01 0.36278390171E+01 0.36888744921E+01 0.38145871222E+01
 0.40349931733E+01 0.43682516375E+01 0.62319338066E+01 0.72074183328E+01 0.82228679281E+01
 0.90812437807E+01 0.95746495006E+01 0.95744939979E+01 0.90810815897E+01 0.82230283254E+01
 0.72076339727E+01 0.62318815828E+01 0.53816878484E+01 0.46503710556E+01 0.40826554561E+01
 0.36892034593E+01 0.34443201276E+01 0.33092605571E+01 0.32507102542E+01 0.32505787561E+01
 0.33091269563E+01 0.34444475715E+01 0.36893304196E+01 0.40825251481E+01 0.46502402288E+01
 0.53817855213E+01 0.91615762575E+01 0.11180408380E+02 0.13054961414E+02 0.14382077659E+02
 0.14860895491E+02 0.14381443931E+02 0.13054525958E+02 0.11180741401E+02 0.91623475117E+01
 0.73690477715E+01 0.59898731500E+01 0.49489915379E+01 0.41604211587E+01 0.36278112564E+01
 0.33088255239E+01 0.31467790911E+01 0.30979967085E+01 0.31465223120E+01 0.33086645481E+01
 0.36280090885E+01 0.41608951322E+01 0.49494254685E+01 0.59899156754E+01 0.73685331274E+01
 0.14940842114E+02 0.18296483828E+02 0.20978502126E+02 0.22465827867E+02 0.22466723087E+02
 0.20979399273E+02 0.18295591476E+02 0.14939938382E+02 0.11543558074E+02 0.86635405423E+01
 0.65877021073E+01 0.52089414176E+01 0.42335281084E+01 0.36034968192E+01 0.32501865845E+01
 0.30971392914E+01 0.30980594057E+01 0.32511256050E+01 0.36026102986E+01 0.42326023239E+01
 0.52098072415E+01 0.65886057023E+01 0.86626794571E+01 0.11542689029E+02 0.24164739342E+02
 0.28688008596E+02 0.31763453933E+02 0.32852857660E+02 0.31763941894E+02 0.28688404267E+02
 0.24164466217E+02 0.18972682515E+02 0.13974764975E+02 0.98965562056E+01 0.70900742470E+01
 0.53838483910E+01 0.42759781510E+01 0.35979462530E+01 0.32506760598E+01 0.31454905959E+01
 0.32506035855E+01 0.35980764855E+01 0.42761748198E+01 0.53836129005E+01 0.70894463966E+01
 0.98962776225E+01 0.13975284018E+02 0.18973486091E+02 0.36493556801E+02 0.41729999551E+02
 0.44602207844E+02 0.44600725402E+02 0.41728860532E+02 0.36495751841E+02 0.29764482292E+02
 0.22573082451E+02 0.15968629909E+02 0.10787689870E+02 0.73810538689E+01 0.54456153621E+01
 0.42751286736E+01 0.36042415754E+01 0.33101260107E+01 0.33080826751E+01 0.36021309669E+01
 0.42770903550E+01 0.54478065446E+01 0.73793016371E+01 0.10785659826E+02 0.15970467762E+02
 0.22575261455E+02 0.29762856242E+02 0.51141763908E+02 0.56549891032E+02 0.58486151976E+02
 0.56550455864E+02 0.51142573086E+02 0.43268493321E+02 0.34164455520E+02 0.25060744483E+02
 0.17091379249E+02 0.11112176062E+02 0.73816767701E+01 0.53847510106E+01 0.42315758349E+01
 0.36279426907E+01 0.34459439545E+01 0.36280006767E+01 0.42315371493E+01 0.53846606313E+01
 0.73818121200E+01 0.11112635886E+02 0.17091884112E+02 0.25060921288E+02 0.34164159169E+02
 0.43267815422E+02 0.67226694465E+02 0.72079816961E+02 0.72082211778E+02 0.67229164436E+02
 0.58629994885E+02 0.47906921155E+02 0.36588073134E+02 0.25949609487E+02 0.17091705525E+02
 0.10785546718E+02 0.70912881004E+01 0.52106783423E+01 0.41587867450E+01 0.36877325916E+01
 0.36905329264E+01 0.41617460398E+01 0.52081206071E+01 0.70882974800E+01 0.10787858803E+02
 0.17094650509E+02 0.25947633615E+02 0.36585505802E+02 0.47908863377E+02 0.58632094439E+02
 0.83374908598E+02 0.86518808504E+02 0.83374520361E+02 0.74800921409E+02 0.62825826173E+02
 0.49561826002E+02 0.36587121816E+02 0.25063053840E+02 0.15969628412E+02 0.98935006044E+01
 0.65881967654E+01 0.49512396824E+01 0.40825643547E+01 0.38127556014E+01 0.40826631608E+01
 0.49512371809E+01 0.65881121406E+01 0.98935026117E+01 0.15969587549E+02 0.25062705803E+02
 0.36586673538E+02 0.49561827543E+02 0.62826404494E+02 0.74801616676E+02 0.97104239345E+02
 0.97101824672E+02 0.89909698181E+02 0.77562202312E+02 0.62826919169E+02 0.47906344354E+02
 0.34162120479E+02 0.22576232493E+02 0.13976265733E+02 0.86611965253E+01 0.59889597289E+01
 0.46522654049E+01 0.40367035844E+01 0.40337283145E+01 0.46490563530E+01 0.59915777233E+01
 0.86644538703E+01 0.13974027917E+02 0.22573078525E+02 0.34163885164E+02 0.47908905394E+02
 0.62825103834E+02 0.77560219933E+02 0.89912231582E+02 0.10517071109E+03 0.10103132983E+03
 0.89909163176E+02 0.74799864720E+02 0.58632692517E+02 0.43267805880E+02 0.29762030001E+02
 0.18974576541E+02 0.11544995570E+02 0.73685151732E+01 0.53799417874E+01 0.43683973889E+01
 0.40531967532E+01 0.43683973889E+01 0.53799417874E+01 0.73685151732E+01 0.11544995570E+02
 0.18974576541E+02 0.29762030001E+02 0.43267805880E+02 0.58632692517E+02 0.74799864720E+02
 0.89909163176E+02 0.10103132983E+03 0.93393867991E+02 0.83375954008E+02 0.69622611072E+02
 0.54713676055E+02 0.40388583600E+02 0.27742837262E+02 0.17684349775E+02 0.10837094378E+02
 0.70425115727E+01 0.52132401151E+01 0.42596276094E+01 0.39614166619E+01 0.42596448848E+01
 0.52132503677E+01 0.70424955059E+01 0.10837061898E+02 0.17684331706E+02 0.27742846409E+02
 0.40388592925E+02 0.54713633282E+02 0.69622490989E+02 0.83375795318E+02 0.93393754132E+02
 0.97101211217E+02 0.83372949296E+02 0.72081560831E+02 0.58485419156E+02 0.44600354241E+02
 0.31762929134E+02 0.20980569018E+02 0.13056213921E+02 0.82210959900E+01 0.57950604885E+01
 0.45426261900E+01 0.39682028632E+01 0.39654031312E+01 0.45396191671E+01 0.57975473950E+01
 0.82241719653E+01 0.13054131011E+02 0.20977657820E+02 0.31764560021E+02 0.44602512827E+02
 0.58483385332E+02 0.72079635778E+02 0.83375581680E+02 0.89912186094E+02 0.89909743669E+02
 0.69620940846E+02 0.58484186908E+02 0.46095205696E+02 0.33962723453E+02 0.23239560007E+02
 0.14866694870E+02 0.93418666627E+01 0.63538372241E+01 0.48332012160E+01 0.40264472283E+01
 0.37793608186E+01 0.40264700456E+01 0.48332195026E+01 0.63538285033E+01 0.93418426304E+01
 0.14866691299E+02 0.23239601321E+02 0.33962783693E+02 0.46095232160E+02 0.58484141133E+02
 0.69620843198E+02 0.77561397609E+02 0.80466990118E+02 0.77561475598E+02 0.54714357631E+02
 0.44600495602E+02 0.33963814340E+02 0.24045851282E+02 0.15881599906E+02 0.10144270542E+02
 0.68157496034E+01 0.50909084927E+01 0.41091107517E+01 0.36717525020E+01 0.36741917915E+01
 0.41117153993E+01 0.50887011096E+01 0.68130254893E+01 0.10146052156E+02 0.15884143457E+02
 0.24044564846E+02 0.33962200717E+02 0.44602418076E+02 0.54715773464E+02 0.62824611481E+02
 0.67399225763E+02 0.67401641405E+02 0.62827450386E+02 0.40388583600E+02 0.31762802777E+02
 0.23241230234E+02 0.15884049398E+02 0.10438177182E+02 0.70769396003E+01 0.52610729642E+01
 0.41877481355E+01 0.36246427593E+01 0.34531854943E+01 0.36246469298E+01 0.41877541895E+01
 0.52610774097E+01 0.70769391155E+01 0.10438174968E+02 0.15884052298E+02 0.23241252560E+02
 0.31762850198E+02 0.40388651228E+02 0.47909077814E+02 0.53092269782E+02 0.54949250673E+02
 0.53092225099E+02 0.47909008334E+02 0.27741862615E+02 0.20978538954E+02 0.14865897053E+02
 0.10146159246E+02 0.70790960219E+01 0.53198759399E+01 0.42290401480E+01 0.36075909221E+01
 0.33360600611E+01 0.33342610413E+01 0.36057220346E+01 0.42307942207E+01 0.53219633076E+01
 0.70777162855E+01 0.10144149021E+02 0.14866738940E+02 0.20979652270E+02 0.27740453526E+02
 0.34162609235E+02 0.39213123940E+02 0.42001179950E+02 0.41999200260E+02 0.39210648872E+02
 0.34163427315E+02 0.17685220217E+02 0.13054981673E+02 0.93393259939E+01 0.68146587164E+01
 0.52619434066E+01 0.42298379646E+01 0.36014408367E+01 0.32837415452E+01 0.31891018586E+01
 0.32837273720E+01 0.36014291009E+01 0.42298418521E+01 0.52619584715E+01 0.68146594449E+01
 0.93392944736E+01 0.13054920591E+02 0.17685155318E+02 0.22574294037E+02 0.26899222639E+02
 0.29875907887E+02 0.30937539796E+02 0.29875904129E+02 0.26899233155E+02 0.22574334190E+02
 0.10839295412E+02 0.82227568088E+01 0.63534086533E+01 0.50893890349E+01 0.41868181013E+01
 0.36072216763E+01 0.32833129744E+01 0.31434156142E+01 0.31443638439E+01 0.32842207540E+01
 0.36061005133E+01 0.41855802169E+01 0.50902374005E+01 0.63547701771E+01 0.82225338721E+01
 0.10838702986E+02 0.13975395318E+02 0.17123916799E+02 0.19675333027E+02 0.21103438825E+02
 0.21104608268E+02 0.19676933107E+02 0.17123793627E+02 0.13974855012E+02 0.70425115727E+01
 0.57966474065E+01 0.48348714424E+01 0.41098469687E+01 0.36246427593E+01 0.33356169144E+01
 0.31882314162E+01 0.31435806032E+01 0.31882331785E+01 0.33356188700E+01 0.36246482467E+01
 0.41098621261E+01 0.48349023554E+01 0.57966920691E+01 0.70425477460E+01 0.86628540183E+01
 0.10510764828E+02 0.12250290421E+02 0.13494515856E+02 0.13946085125E+02 0.13494550030E+02
 0.12250334701E+02 0.10510788853E+02 0.86628435353E+01 0.52113729630E+01 0.45414886305E+01
 0.40265419169E+01 0.36727487005E+01 0.34544494108E+01 0.33351535464E+01 0.32838220605E+01
 0.32836974947E+01 0.33351695114E+01 0.34549516989E+01 0.36731731439E+01 0.40262270093E+01
 0.45407554277E+01 0.52110055911E+01 0.59903713402E+01 0.68701947240E+01 0.77883116894E+01
 0.85711399549E+01 0.90244009145E+01 0.90241388065E+01 0.85706216851E+01 0.77878845526E+01
 0.68698680158E+01 0.59902273698E+01 0.42596653863E+01 0.39669706152E+01 0.37776528153E+01
 0.36731009044E+01 0.36246847067E+01 0.36065198512E+01 0.36022617664E+01 0.36065290841E+01
 0.36246860236E+01 0.36730784554E+01 0.37776107978E+01 0.39669363089E+01 0.42596608389E+01
 0.46503387021E+01 0.51023562214E+01 0.55539807617E+01 0.59461046631E+01 0.62229309349E+01
 0.63238308849E+01 0.62229347919E+01 0.59460975644E+01 0.55539527849E+01 0.51023162803E+01
 0.46503120180E+01 0.39632878984E+01 0.39667341522E+01 0.40263712726E+01 0.41105257393E+01
 0.41864943575E+01 0.42300951772E+01 0.42297430791E+01 0.41859100146E+01 0.41103155691E+01
 0.40264204708E+01 0.39668375359E+01 0.39637019962E+01 0.40355061026E+01 0.41783303066E+01
 0.43659720026E+01 0.45580607322E+01 0.47125540805E+01 0.47975213381E+01 0.47972569949E+01
 0.47124001456E+01 0.45587074649E+01 0.43667708257E+01 0.41783097467E+01 0.40348852065E+01
 0.42596448848E+01 0.45410025020E+01 0.48348897290E+01 0.50896409097E+01 0.52610774097E+01
 0.53213165780E+01 0.52610880291E+01 0.50896577428E+01 0.48349023554E+01 0.45410012032E+01
 0.42596230620E+01 0.40352562427E+01 0.38915877535E+01 0.38266870471E+01 0.38190468337E+01
 0.38396331339E+01 0.38628406992E+01 0.38723837210E+01 0.38628311782E+01 0.38396266974E+01
 0.38190568735E+01 0.38267205626E+01 0.38916343647E+01 0.40352968324E+01 0.52114369715E+01
 0.57963560796E+01 0.63538694360E+01 0.68140754437E+01 0.70782567878E+01 0.70785550347E+01
 0.68147003776E+01 0.63543006737E+01 0.57962964665E+01 0.52109518353E+01 0.46503796347E+01
 0.41781906009E+01 0.38264950275E+01 0.35930977253E+01 0.34540518492E+01 0.33802857174E+01
 0.33492966793E+01 0.33494408957E+01 0.33804164303E+01 0.34537509327E+01 0.35925174659E+01
 0.38261928326E+01 0.41784494524E+01 0.46509688072E+01 0.70426345776E+01 0.82229397173E+01
 0.93400333323E+01 0.10144961269E+02 0.10438314039E+02 0.10144946838E+02 0.93400258443E+01
 0.82229624429E+01 0.70426868178E+01 0.59902766517E+01 0.51022549266E+01 0.43660707756E+01
 0.38191859054E+01 0.34540109165E+01 0.32348322632E+01 0.31222329629E+01 0.30880460825E+01
 0.31222209596E+01 0.32348211785E+01 0.34540121451E+01 0.38191906671E+01 0.43660620186E+01
 0.51022149855E+01 0.59902153939E+01 0.10839130523E+02 0.13055659420E+02 0.14866395138E+02
 0.15882756409E+02 0.15882989854E+02 0.14866237285E+02 0.13054624430E+02 0.10838835396E+02
 0.86635048492E+01 0.68705855734E+01 0.55536846007E+01 0.45578633443E+01 0.38400803817E+01
 0.33806228110E+01 0.31219368019E+01 0.30089422094E+01 0.30095070362E+01 0.31224789475E+01
 0.33800903209E+01 0.38398084162E+01 0.45588964141E+01 0.55543716754E+01 0.68694771664E+01
 0.86621560295E+01 0.17684331706E+02 0.20979632285E+02 0.23241271547E+02 0.24044913516E+02
 0.23241252560E+02 0.20979596670E+02 0.17684284875E+02 0.13974224531E+02 0.10510764828E+02
 0.77891485947E+01 0.59460668861E+01 0.47117130908E+01 0.38628406992E+01 0.33500798287E+01
 0.30879070107E+01 0.30084686586E+01 0.30879185473E+01 0.33500911369E+01 0.38628400617E+01
 0.47116990192E+01 0.59460516692E+01 0.77891505885E+01 0.10510788853E+02 0.13974267851E+02
 0.27740323405E+02 0.31764078314E+02 0.33963534233E+02 0.33962541063E+02 0.31763458262E+02
 0.27742001883E+02 0.22575044578E+02 0.17122737688E+02 0.12249185211E+02 0.85717958071E+01
 0.62236814756E+01 0.47966720244E+01 0.38714820934E+01 0.33501505037E+01 0.31229715003E+01
 0.31214322459E+01 0.33485983795E+01 0.38729824026E+01 0.47981019642E+01 0.62218845330E+01
 0.85699581454E+01 0.12250809233E+02 0.17124972739E+02 0.22574226288E+02 0.40387258943E+02
 0.44601280579E+02 0.46094895915E+02 0.44601327189E+02 0.40387317246E+02 0.34163407051E+02
 0.26901427062E+02 0.19675761598E+02 0.13493181875E+02 0.90243062259E+01 0.63252026430E+01
 0.47973557680E+01 0.38614971970E+01 0.33803754976E+01 0.32362942315E+01 0.33803864818E+01
 0.38615060805E+01 0.47973514235E+01 0.63251928473E+01 0.90243087607E+01 0.13493207477E+02
 0.19675795665E+02 0.26901437579E+02 0.34163376144E+02 0.54714320382E+02 0.58483532217E+02
 0.58485226496E+02 0.54715767940E+02 0.47906633846E+02 0.39211240760E+02 0.29876993250E+02
 0.21104952759E+02 0.13945354432E+02 0.90231481318E+01 0.62240201551E+01 0.47135842818E+01
 0.38386924211E+01 0.34527065022E+01 0.34550975082E+01 0.38411899403E+01 0.47113558728E+01
 0.62215497105E+01 0.90253941239E+01 0.13948085498E+02 0.21103078796E+02 0.29874256214E+02