   1   1   0   0
  0.1420671E+02  0.2718543E-09  0.2718543E-09  0.2718543E-09  0.5000000E-15
  1.000000000000000E-004
  CAR 
 unknown system                          
     35.14610574      0.17131363  301     11.26911270      1.00000000
      0.171  0.0000E+00  0.0000E+00
      0.288  0.0000E+00  0.0000E+00
      0.404  0.0000E+00  0.0000E+00
      0.521 -0.1405E-31 -0.1638E-32
      0.638 -0.1400E-27 -0.1632E-28
      0.754 -0.7025E-24 -0.8192E-25
      0.871 -0.1775E-20 -0.2070E-21
      0.987 -0.2130E-17 -0.2485E-18
      1.104 -0.1387E-14 -0.1619E-15
      1.221 -0.4380E-12 -0.5123E-13
      1.337 -0.6868E-10 -0.8058E-11
      1.454 -0.5296E-08 -0.6255E-09
      1.570 -0.1975E-06 -0.2364E-07
      1.687 -0.3434E-05 -0.4240E-06
      1.803 -0.2534E-04 -0.3379E-05
      1.920 -0.5028E-04 -0.9240E-05
      2.037  0.1828E-03  0.1207E-04
      2.153  0.7743E-03  0.1023E-03
      2.270  0.8293E-03  0.1990E-03
      2.386  0.7372E-03  0.2850E-03
      2.503  0.2144E-02  0.5349E-03
      2.620  0.2894E-02  0.8723E-03
      2.736  0.1901E-02  0.1094E-02
      2.853  0.2334E-02  0.1366E-02
      2.969  0.2767E-02  0.1689E-02
      3.086  0.2402E-02  0.1969E-02
      3.202  0.3144E-02  0.2335E-02
      3.319  0.3288E-02  0.2719E-02
      3.436  0.6058E-02  0.3425E-02
      3.552  0.1389E-01  0.5044E-02
      3.669  0.2477E-01  0.7932E-02
      3.785  0.3857E-01  0.1243E-01
      3.902  0.5271E-01  0.1857E-01
      4.019  0.6973E-01  0.2670E-01
      4.135  0.8903E-01  0.3708E-01
      4.252  0.9329E-01  0.4796E-01
      4.368  0.8493E-01  0.5786E-01
      4.485  0.7658E-01  0.6679E-01
      4.601  0.6690E-01  0.7459E-01
      4.718  0.5558E-01  0.8107E-01
      4.835  0.4979E-01  0.8687E-01
      4.951  0.5807E-01  0.9364E-01
      5.068  0.6504E-01  0.1012E+00
      5.184  0.6289E-01  0.1086E+00
      5.301  0.5877E-01  0.1154E+00
      5.418  0.5764E-01  0.1221E+00
      5.534  0.6330E-01  0.1295E+00
      5.651  0.6903E-01  0.1376E+00
      5.767  0.7863E-01  0.1467E+00
      5.884  0.9295E-01  0.1576E+00
      6.000  0.1034E+00  0.1696E+00
      6.117  0.1019E+00  0.1815E+00
      6.234  0.8253E-01  0.1911E+00
      6.350  0.6233E-01  0.1984E+00
      6.467  0.6484E-01  0.2059E+00
      6.583  0.7103E-01  0.2142E+00
      6.700  0.6210E-01  0.2215E+00
      6.817  0.5844E-01  0.2283E+00
      6.933  0.7070E-01  0.2365E+00
      7.050  0.8346E-01  0.2462E+00
      7.166  0.8062E-01  0.2556E+00
      7.283  0.6412E-01  0.2631E+00
      7.399  0.6469E-01  0.2707E+00
      7.516  0.6714E-01  0.2785E+00
      7.633  0.5236E-01  0.2846E+00
      7.749  0.5785E-01  0.2913E+00
      7.866  0.7618E-01  0.3002E+00
      7.982  0.8049E-01  0.3096E+00
      8.099  0.8991E-01  0.3201E+00
      8.216  0.9486E-01  0.3311E+00
      8.332  0.6875E-01  0.3392E+00
      8.449  0.3919E-01  0.3437E+00
      8.565  0.2329E-01  0.3464E+00
      8.682  0.1496E-01  0.3482E+00
      8.798  0.1020E-01  0.3494E+00
      8.915  0.4656E-02  0.3499E+00
      9.032  0.2379E-02  0.3502E+00
      9.148  0.2353E-02  0.3505E+00
      9.265  0.3780E-02  0.3509E+00
      9.381  0.6034E-02  0.3516E+00
      9.498  0.5920E-02  0.3523E+00
      9.615  0.6937E-02  0.3531E+00
      9.731  0.1137E-01  0.3544E+00
      9.848  0.1355E-01  0.3560E+00
      9.964  0.7988E-02  0.3570E+00
     10.081  0.4416E-02  0.3575E+00
     10.197  0.7831E-02  0.3584E+00
     10.314  0.7126E-02  0.3592E+00
     10.431  0.1580E-02  0.3594E+00
     10.547 -0.8228E-03  0.3593E+00
     10.664  0.2476E-02  0.3596E+00
     10.780  0.1137E-01  0.3609E+00
     10.897  0.1947E-01  0.3632E+00
     11.013  0.1696E-01  0.3652E+00
     11.130  0.7783E-02  0.3661E+00
     11.247  0.4183E-02  0.3666E+00
     11.363  0.5732E-02  0.3672E+00
     11.480  0.5724E-02  0.3679E+00
     11.596  0.5690E-02  0.3686E+00
     11.713  0.6846E-02  0.3694E+00
     11.830  0.5238E-02  0.3700E+00
     11.946  0.4308E-02  0.3705E+00
     12.063  0.7877E-02  0.3714E+00
     12.179  0.1041E-01  0.3726E+00
     12.296  0.8037E-02  0.3735E+00
     12.412  0.4871E-02  0.3741E+00
     12.529  0.8964E-02  0.3751E+00
     12.646  0.1900E-01  0.3774E+00
     12.762  0.1922E-01  0.3796E+00
     12.879  0.8077E-02  0.3805E+00
     12.995 -0.3402E-04  0.3805E+00
     13.112 -0.4977E-03  0.3805E+00
     13.229  0.3313E-02  0.3809E+00
     13.345  0.5983E-02  0.3816E+00
     13.462  0.2861E-02  0.3819E+00
     13.578  0.1804E-02  0.3821E+00
     13.695  0.1082E-01  0.3834E+00
     13.811  0.1889E-01  0.3856E+00
     13.928  0.1489E-01  0.3873E+00
     14.045  0.7076E-02  0.3881E+00
     14.161  0.2719E-02  0.3885E+00
     14.278  0.2227E-02  0.3887E+00
     14.394  0.2553E-02  0.3890E+00
     14.511  0.5203E-02  0.3896E+00
     14.628  0.1000E-01  0.3908E+00
     14.744  0.1071E-01  0.3920E+00
     14.861  0.6463E-02  0.3928E+00
     14.977  0.2279E-02  0.3930E+00
     15.094  0.3705E-02  0.3935E+00
     15.210  0.5874E-02  0.3942E+00
     15.327  0.3336E-02  0.3946E+00
     15.444  0.1842E-02  0.3948E+00
     15.560  0.2496E-02  0.3951E+00
     15.677  0.3138E-02  0.3954E+00
     15.793  0.6682E-02  0.3962E+00
     15.910  0.9720E-02  0.3973E+00
     16.027  0.8607E-02  0.3983E+00
     16.143  0.9184E-02  0.3994E+00
     16.260  0.1094E-01  0.4007E+00
     16.376  0.8739E-02  0.4017E+00
     16.493  0.8882E-02  0.4027E+00
     16.609  0.1183E-01  0.4041E+00
     16.726  0.1329E-01  0.4057E+00
     16.843  0.1036E-01  0.4069E+00
     16.959  0.7777E-02  0.4078E+00
     17.076  0.8998E-02  0.4088E+00
     17.192  0.8359E-02  0.4098E+00
     17.309  0.1067E-01  0.4111E+00
     17.426  0.1608E-01  0.4129E+00
     17.542  0.1624E-01  0.4148E+00
     17.659  0.8554E-02  0.4158E+00
     17.775  0.9647E-03  0.4159E+00
     17.892  0.5570E-03  0.4160E+00
     18.008  0.4957E-02  0.4166E+00
     18.125  0.9801E-02  0.4177E+00
     18.242  0.1474E-01  0.4194E+00
     18.358  0.1434E-01  0.4211E+00
     18.475  0.7199E-02  0.4219E+00
     18.591  0.5208E-02  0.4226E+00
     18.708  0.1060E-01  0.4238E+00
     18.825  0.1123E-01  0.4251E+00
     18.941  0.8656E-02  0.4261E+00
     19.058  0.8068E-02  0.4270E+00
     19.174  0.4179E-02  0.4275E+00
     19.291  0.2681E-03  0.4276E+00
     19.407  0.3075E-02  0.4279E+00
     19.524  0.1105E-01  0.4292E+00
     19.641  0.1515E-01  0.4310E+00
     19.757  0.1294E-01  0.4325E+00
     19.874  0.1157E-01  0.4338E+00
     19.990  0.1359E-01  0.4354E+00
     20.107  0.2014E-01  0.4378E+00
     20.224  0.2786E-01  0.4410E+00
     20.340  0.2317E-01  0.4437E+00
     20.457  0.9762E-02  0.4449E+00
     20.573  0.6072E-02  0.4456E+00
     20.690  0.1245E-01  0.4470E+00
     20.806  0.1334E-01  0.4486E+00
     20.923  0.8269E-02  0.4495E+00
     21.040  0.1075E-01  0.4508E+00
     21.156  0.1579E-01  0.4526E+00
     21.273  0.1361E-01  0.4542E+00
     21.389  0.1557E-01  0.4560E+00
     21.506  0.2057E-01  0.4584E+00
     21.623  0.1503E-01  0.4602E+00
     21.739  0.4333E-02  0.4607E+00
     21.856  0.1552E-02  0.4609E+00
     21.972  0.7789E-02  0.4618E+00
     22.089  0.1882E-01  0.4640E+00
     22.205  0.3180E-01  0.4677E+00
     22.322  0.3160E-01  0.4714E+00
     22.439  0.1520E-01  0.4731E+00
     22.555  0.7362E-02  0.4740E+00
     22.672  0.1321E-01  0.4755E+00
     22.788  0.1353E-01  0.4771E+00
     22.905  0.1030E-01  0.4783E+00
     23.022  0.1736E-01  0.4803E+00
     23.138  0.2687E-01  0.4835E+00
     23.255  0.2457E-01  0.4863E+00
     23.371  0.1612E-01  0.4882E+00
     23.488  0.1375E-01  0.4898E+00
     23.604  0.1551E-01  0.4916E+00
     23.721  0.1534E-01  0.4934E+00
     23.838  0.1668E-01  0.4953E+00
     23.954  0.1632E-01  0.4973E+00
     24.071  0.1076E-01  0.4985E+00
     24.187  0.8553E-02  0.4995E+00
     24.304  0.7538E-02  0.5004E+00
     24.421  0.8326E-02  0.5014E+00
     24.537  0.1668E-01  0.5033E+00
     24.654  0.2670E-01  0.5064E+00
     24.770  0.2675E-01  0.5095E+00
     24.887  0.1883E-01  0.5117E+00
     25.003  0.1773E-01  0.5138E+00
     25.120  0.2136E-01  0.5163E+00
     25.237  0.2193E-01  0.5188E+00
     25.353  0.1787E-01  0.5209E+00
     25.470  0.1175E-01  0.5223E+00
     25.586  0.1006E-01  0.5235E+00
     25.703  0.9578E-02  0.5246E+00
     25.819  0.1440E-01  0.5263E+00
     25.936  0.2581E-01  0.5293E+00
     26.053  0.2857E-01  0.5326E+00
     26.169  0.1689E-01  0.5346E+00
     26.286  0.5429E-02  0.5352E+00
     26.402  0.5645E-02  0.5359E+00
     26.519  0.1115E-01  0.5372E+00
     26.636  0.1511E-01  0.5389E+00
     26.752  0.2216E-01  0.5415E+00
     26.869  0.2791E-01  0.5448E+00
     26.985  0.2309E-01  0.5474E+00
     27.102  0.1624E-01  0.5493E+00
     27.218  0.1511E-01  0.5511E+00
     27.335  0.1863E-01  0.5533E+00
     27.452  0.2305E-01  0.5560E+00
     27.568  0.2251E-01  0.5586E+00
     27.685  0.1572E-01  0.5604E+00
     27.801  0.1050E-01  0.5616E+00
     27.918  0.1678E-01  0.5636E+00
     28.035  0.2512E-01  0.5665E+00
     28.151  0.1989E-01  0.5688E+00
     28.268  0.1035E-01  0.5701E+00
     28.384  0.1018E-01  0.5712E+00
     28.501  0.1284E-01  0.5727E+00
     28.617  0.1145E-01  0.5741E+00
     28.734  0.1036E-01  0.5753E+00
     28.851  0.1192E-01  0.5767E+00
     28.967  0.1488E-01  0.5784E+00
     29.084  0.1535E-01  0.5802E+00
     29.200  0.9908E-02  0.5813E+00
     29.317  0.4745E-02  0.5819E+00
     29.434  0.3203E-02  0.5823E+00
     29.550  0.4555E-02  0.5828E+00
     29.667  0.5197E-02  0.5834E+00
     29.783  0.3390E-02  0.5838E+00
     29.900  0.8619E-02  0.5848E+00
     30.016  0.1712E-01  0.5868E+00
     30.133  0.1412E-01  0.5885E+00
     30.250  0.9600E-02  0.5896E+00
     30.366  0.1021E-01  0.5908E+00
     30.483  0.7706E-02  0.5917E+00
     30.599  0.4501E-02  0.5922E+00
     30.716  0.3491E-02  0.5926E+00
     30.833  0.3235E-02  0.5930E+00
     30.949  0.1628E-02  0.5932E+00
     31.066  0.8156E-03  0.5933E+00
     31.182  0.4672E-02  0.5938E+00
     31.299  0.7845E-02  0.5947E+00
     31.415  0.5304E-02  0.5953E+00
     31.532  0.5324E-02  0.5960E+00
     31.649  0.9195E-02  0.5970E+00
     31.765  0.9787E-02  0.5982E+00
     31.882  0.6794E-02  0.5990E+00
     31.998  0.2519E-02  0.5993E+00
     32.115 -0.2245E-04  0.5993E+00
     32.232  0.4796E-04  0.5993E+00
     32.348  0.8826E-03  0.5994E+00
     32.465  0.8395E-03  0.5995E+00
     32.581  0.1874E-03  0.5995E+00
     32.698  0.2247E-03  0.5995E+00
     32.814  0.8582E-03  0.5996E+00
     32.931  0.8886E-03  0.5997E+00
     33.048  0.6389E-03  0.5998E+00
     33.164  0.9459E-03  0.5999E+00
     33.281  0.8043E-03  0.6000E+00
     33.397  0.1851E-03  0.6000E+00
     33.514 -0.5022E-04  0.6000E+00
     33.631 -0.2534E-04  0.6000E+00
     33.747 -0.3434E-05  0.6000E+00
     33.864 -0.1975E-06  0.6000E+00
     33.980 -0.5296E-08  0.6000E+00
     34.097 -0.6868E-10  0.6000E+00
     34.213 -0.4380E-12  0.6000E+00
     34.330 -0.1386E-14  0.6000E+00
     34.447 -0.2480E-17  0.6000E+00
     34.563  0.0000E+00  0.6000E+00
     34.680  0.0000E+00  0.6000E+00
     34.796  0.0000E+00  0.6000E+00
     34.913  0.0000E+00  0.6000E+00
     35.030  0.0000E+00  0.6000E+00
     35.146  0.0000E+00  0.6000E+00
