    1    1   30    1
  0.1420671E+02  0.2718543E-09  0.2718543E-09  0.2718543E-09  0.5000000E-15
  1.000000000000000E-004
  CAR 
 unknown system                          
     11     60      9
 
  0.6250000E-01  0.6250000E-01  0.6250000E-01  0.3906250E-02
    1        2.171314
    2        5.633816
    3        5.720804
    4        5.720804
    5        7.081514
    6        7.081514
    7       27.645246
    8       31.184764
    9       32.338702
 
  0.1875000E+00  0.6250000E-01  0.6250000E-01  0.1171875E-01
    1        2.872164
    2        5.436125
    3        5.913621
    4        5.944826
    5        6.889211
    6        7.194498
    7       27.561852
    8       28.728857
    9       31.767418
 
  0.3125000E+00  0.6250000E-01  0.6250000E-01  0.1171875E-01
    1        3.789793
    2        5.783364
    3        5.983713
    4        6.055758
    5        7.117941
    6        7.754628
    7       23.099353
    8       28.079751
    9       31.532727
 
  0.4375000E+00  0.6250000E-01  0.6250000E-01  0.1171875E-01
    1        3.721254
    2        5.669668
    3        5.771377
    4        7.488345
    5        7.816081
    6        9.348696
    7       18.265548
    8       27.132054
    9       30.293565
 
 -0.4375000E+00  0.6250000E-01  0.6250000E-01  0.1171875E-01
    1        3.634867
    2        5.570785
    3        5.714722
    4        7.754447
    5        8.194252
    6       10.740432
    7       16.126153
    8       26.841310
    9       30.412459
 
 -0.3125000E+00  0.6250000E-01  0.6250000E-01  0.1171875E-01
    1        3.775986
    2        5.717591
    3        5.870436
    4        6.903493
    5        7.928096
    6        8.461148
    7       19.783365
    8       27.527372
    9       30.796518
 
 -0.1875000E+00  0.6250000E-01  0.6250000E-01  0.1171875E-01
    1        3.592502
    2        5.505476
    3        5.990665
    4        6.031432
    5        7.088632
    6        7.377965
    7       24.762822
    8       28.557688
    9       31.608185
 
 -0.6250000E-01  0.6250000E-01  0.6250000E-01  0.1171875E-01
    1        2.537244
    2        5.478701
    3        5.860471
    4        5.864425
    5        6.916346
    6        7.165840
    7       27.868148
    8       29.920439
    9       31.838672
 
  0.1875000E+00  0.1875000E+00  0.6250000E-01  0.1171875E-01
    1        3.201080
    2        5.177696
    3        6.119690
    4        6.144449
    5        6.721160
    6        7.323897
    7       27.963268
    8       28.948958
    9       30.574320
 
  0.3125000E+00  0.1875000E+00  0.6250000E-01  0.2343750E-01
    1        4.116437
    2        4.941540
    3        5.948245
    4        6.490177
    5        7.123925
    6        7.882286
    7       25.235871
    8       27.284492
    9       29.971178
 
  0.4375000E+00  0.1875000E+00  0.6250000E-01  0.2343750E-01
    1        4.175406
    2        5.432875
    3        5.860975
    4        6.376305
    5        7.923909
    6        9.829910
    7       20.181536
    8       26.649114
    9       28.023400
 
 -0.4375000E+00  0.1875000E+00  0.6250000E-01  0.2343750E-01
    1        4.077439
    2        5.248599
    3        6.147473
    4        6.631028
    5        8.137232
    6       12.565440
    7       16.234373
    8       26.039389
    9       27.444528
 
 -0.3125000E+00  0.1875000E+00  0.6250000E-01  0.2343750E-01
    1        4.211487
    2        5.373136
    3        6.115255
    4        6.411415
    5        7.728386
    6       10.914818
    7       18.678306
    8       25.507567
    9       28.372307
 
 -0.1875000E+00  0.1875000E+00  0.6250000E-01  0.2343750E-01
    1        4.389013
    2        5.181796
    3        5.778881
    4        6.451236
    5        6.929809
    6        8.661975
    7       23.580708
    8       25.810599
    9       30.269956
 
 -0.6250000E-01  0.1875000E+00  0.6250000E-01  0.2343750E-01
    1        3.471895
    2        5.232908
    3        6.038022
    4        6.140257
    5        6.805422
    6        7.445240
    7       26.523076
    8       28.102068
    9       31.243482
 
  0.3125000E+00  0.3125000E+00  0.6250000E-01  0.1171875E-01
    1        4.166488
    2        4.424718
    3        6.701016
    4        7.018147
    5        7.776875
    6        7.839469
    7       25.619201
    8       26.814328
    9       27.321852
 
  0.4375000E+00  0.3125000E+00  0.6250000E-01  0.2343750E-01
    1        4.121230
    2        4.319873
    3        6.583727
    4        7.409537
    5        7.987912
    6       10.205488
    7       22.611008
    8       24.648114
    9       24.873449
 
 -0.4375000E+00  0.3125000E+00  0.6250000E-01  0.2343750E-01
    1        4.171666
    2        4.730824
    3        6.212783
    4        7.066739
    5        8.209441
    6       13.738618
    7       18.007454
    8       22.647863
    9       25.058412
 
 -0.3125000E+00  0.3125000E+00  0.6250000E-01  0.2343750E-01
    1        4.571253
    2        5.162436
    3        5.683720
    4        6.829093
    5        7.763174
    6       13.955045
    7       18.280681
    8       21.175871
    9       26.745725
 
 -0.1875000E+00  0.3125000E+00  0.6250000E-01  0.2343750E-01
    1        4.745056
    2        5.247849
    3        5.563583
    4        6.635043
    5        7.294480
    6       10.941596
    7       20.790610
    8       23.164556
    9       28.498353
 
 -0.6250000E-01  0.3125000E+00  0.6250000E-01  0.2343750E-01
    1        4.006433
    2        5.724635
    3        5.958737
    4        6.142012
    5        7.475636
    6        8.520823
    7       21.574537
    8       27.444937
    9       29.994718
 
  0.4375000E+00  0.4375000E+00  0.6250000E-01  0.1171875E-01
    1        3.671461
    2        3.837053
    3        7.883729
    4        7.905633
    5        8.250911
    6       11.139929
    7       21.956042
    8       22.993767
    9       23.814603
 
 -0.4375000E+00  0.4375000E+00  0.6250000E-01  0.2343750E-01
    1        3.700202
    2        3.924965
    3        7.474130
    4        7.860533
    5        8.406072
    6       13.711382
    7       19.898553
    8       21.075142
    9       22.965465
 
 -0.3125000E+00  0.4375000E+00  0.6250000E-01  0.2343750E-01
    1        4.087533
    2        4.600855
    3        6.403000
    4        7.299390
    5        8.169140
    6       15.787102
    7       17.462242
    8       20.266430
    9       24.641022
 
 -0.1875000E+00  0.4375000E+00  0.6250000E-01  0.2343750E-01
    1        4.390749
    2        5.072041
    3        6.138902
    4        6.503128
    5        7.990131
    6       13.793394
    7       16.490428
    8       23.740688
    9       26.900939
 
 -0.6250000E-01  0.4375000E+00  0.6250000E-01  0.2343750E-01
    1        3.830947
    2        5.486094
    3        5.886025
    4        7.120897
    5        8.078112
    6       10.840858
    7       17.042119
    8       26.819802
    9       29.044627
 
 -0.4375000E+00 -0.4375000E+00  0.6250000E-01  0.1171875E-01
    1        3.499828
    2        3.705688
    3        8.066740
    4        8.217037
    5        8.423961
    6       12.721896
    7       19.896536
    8       22.328142
    9       23.118422
 
 -0.3125000E+00 -0.4375000E+00  0.6250000E-01  0.2343750E-01
    1        3.865561
    2        4.055595
    3        7.101477
    4        7.767845
    5        8.230618
    6       12.052478
    7       21.488061
    8       22.202445
    9       23.562302
 
 -0.1875000E+00 -0.4375000E+00  0.6250000E-01  0.2343750E-01
    1        4.231321
    2        5.023995
    3        5.980908
    4        6.718120
    5        8.157574
    6       11.631272
    7       18.957947
    8       25.312108
    9       25.902702
 
 -0.3125000E+00 -0.3125000E+00  0.6250000E-01  0.1171875E-01
    1        3.951233
    2        4.087790
    3        7.361003
    4        7.502925
    5        8.019627
    6        9.303599
    7       24.162609
    8       24.715883
    9       25.101428
 
 -0.1875000E+00 -0.3125000E+00  0.6250000E-01  0.2343750E-01
    1        4.327178
    2        4.646169
    3        6.083729
    4        6.933530
    5        7.634402
    6        8.734188
    7       23.902701
    8       26.007832
    9       27.616640
 
 -0.1875000E+00 -0.1875000E+00  0.6250000E-01  0.1171875E-01
    1        3.918464
    2        4.804494
    3        6.277986
    4        6.542322
    5        6.974232
    6        7.536481
    7       27.018639
    8       28.744274
    9       28.809138
 
  0.1875000E+00  0.1875000E+00  0.1875000E+00  0.3906250E-02
    1        3.140489
    2        5.525836
    3        5.936599
    4        5.936599
    5        7.076069
    6        7.076069
    7       26.244790
    8       28.701281
    9       33.146106
 
  0.3125000E+00  0.1875000E+00  0.1875000E+00  0.1171875E-01
    1        3.929551
    2        5.250428
    3        6.001614
    4        6.223518
    5        6.711191
    6        7.916332
    7       25.001259
    8       27.008225
    9       31.640404
 
  0.4375000E+00  0.1875000E+00  0.1875000E+00  0.1171875E-01
    1        4.596927
    2        5.312339
    3        5.810537
    4        6.384172
    5        6.944367
    6        9.658123
    7       22.105017
    8       24.414696
    9       30.024161
 
 -0.4375000E+00  0.1875000E+00  0.1875000E+00  0.1171875E-01
    1        4.276948
    2        5.260254
    3        6.241976
    4        6.409902
    5        7.780803
    6       12.243960
    7       17.422280
    8       24.489449
    9       28.937368
 
 -0.3125000E+00  0.1875000E+00  0.1875000E+00  0.1171875E-01
    1        4.118645
    2        5.212435
    3        6.300253
    4        6.325037
    5        8.236395
    6       12.114247
    7       17.271382
    8       25.595368
    9       27.948035
 
 -0.1875000E+00  0.1875000E+00  0.1875000E+00  0.1171875E-01
    1        4.197418
    2        5.070956
    3        5.944619
    4        6.531735
    5        8.021778
    6        9.017189
    7       21.937507
    8       27.338734
    9       27.718519
 
  0.3125000E+00  0.3125000E+00  0.1875000E+00  0.1171875E-01
    1        4.030664
    2        5.378209
    3        5.853720
    4        6.229192
    5        7.716455
    6        7.743423
    7       23.323297
    8       28.302790
    9       29.616904
 
  0.4375000E+00  0.3125000E+00  0.1875000E+00  0.2343750E-01
    1        4.564296
    2        5.076882
    3        5.546998
    4        6.838281
    5        7.399751
    6        9.776826
    7       22.255039
    8       24.569404
    9       27.937119
 
 -0.4375000E+00  0.3125000E+00  0.1875000E+00  0.2343750E-01
    1        4.843659
    2        4.957432
    3        5.430428
    4        6.951704
    5        7.732957
    6       12.597653
    7       19.636357
    8       22.155248
    9       25.874915
 
 -0.3125000E+00  0.3125000E+00  0.1875000E+00  0.2343750E-01
    1        4.544430
    2        4.883736
    3        5.805480
    4        6.848952
    5        8.112095
    6       14.761707
    7       16.735065
    8       23.251484
    9       24.177620
 
 -0.1875000E+00  0.3125000E+00  0.1875000E+00  0.2343750E-01
    1        4.435939
    2        4.723271
    3        5.824005
    4        7.242139
    5        7.818777
    6       11.355747
    7       21.059375
    8       23.421892
    9       25.234192
 
  0.4375000E+00  0.4375000E+00  0.1875000E+00  0.1171875E-01
    1        4.104484
    2        4.658192
    3        6.375587
    4        6.910460
    5        8.232268
    6       10.734690
    7       20.664815
    8       25.003266
    9       26.146347
 
 -0.4375000E+00  0.4375000E+00  0.1875000E+00  0.2343750E-01
    1        4.216839
    2        4.449520
    3        6.225771
    4        7.462386
    5        8.165179
    6       13.289120
    7       20.106082
    8       22.285183
    9       22.754919
 
 -0.3125000E+00  0.4375000E+00  0.1875000E+00  0.2343750E-01
    1        4.392424
    2        4.898913
    3        5.648419
    4        7.122634
    5        8.398427
    6       16.688453
    7       18.191377
    8       20.324757
    9       21.375538
 
 -0.1875000E+00  0.4375000E+00  0.1875000E+00  0.2343750E-01
    1        4.586571
    2        4.908983
    3        5.519779
    4        7.107970
    5        8.136260
    6       14.601665
    7       18.718920
    8       21.431713
    9       23.112583
 
 -0.4375000E+00 -0.4375000E+00  0.1875000E+00  0.1171875E-01
    1        3.811319
    2        4.194142
    3        7.113781
    4        7.610888
    5        8.264283
    6       14.528077
    7       19.058003
    8       20.119629
    9       24.445517
 
 -0.3125000E+00 -0.4375000E+00  0.1875000E+00  0.2343750E-01
    1        4.051586
    2        4.335740
    3        6.534030
    4        7.470842
    5        8.400188
    6       15.140392
    7       19.505413
    8       20.206583
    9       22.156759
 
 -0.3125000E+00 -0.3125000E+00  0.1875000E+00  0.1171875E-01
    1        3.935011
    2        4.345802
    3        6.829999
    4        7.306985
    5        8.306379
    6       12.723125
    7       19.648418
    8       22.306571
    9       25.027419
 
  0.3125000E+00  0.3125000E+00  0.3125000E+00  0.3906250E-02
    1        3.722002
    2        5.854444
    3        5.854444
    4        6.833038
    5        7.553458
    6        7.553458
    7       21.343969
    8       27.897092
    9       32.813592
 
  0.4375000E+00  0.3125000E+00  0.3125000E+00  0.1171875E-01
    1        4.068791
    2        5.602119
    3        6.027683
    4        6.471477
    5        7.397908
    6        9.536193
    7       20.028870
    8       26.442438
    9       29.570833
 
 -0.4375000E+00  0.3125000E+00  0.3125000E+00  0.1171875E-01
    1        4.679555
    2        5.266480
    3        5.743710
    4        6.586450
    5        7.439353
    6       12.302392
    7       19.474846
    8       21.998645
    9       29.324693
 
 -0.3125000E+00  0.3125000E+00  0.3125000E+00  0.1171875E-01
    1        4.256669
    2        4.966993
    3        6.085902
    4        7.029670
    5        7.914695
    6       15.495626
    7       17.006214
    8       20.571546
    9       26.780066
 
  0.4375000E+00  0.4375000E+00  0.3125000E+00  0.1171875E-01
    1        3.929415
    2        5.488054
    3        6.034700
    4        6.561416
    5        8.171913
    6       10.133050
    7       18.414516
    8       27.111788
    9       29.161472
 
 -0.4375000E+00  0.4375000E+00  0.3125000E+00  0.2343750E-01
    1        4.408742
    2        5.069741
    3        5.998015
    4        6.566007
    5        8.002710
    6       12.697051
    7       17.542781
    8       24.723656
    9       26.001909
 
 -0.3125000E+00  0.4375000E+00  0.3125000E+00  0.2343750E-01
    1        4.478651
    2        4.968750
    3        5.666974
    4        7.034359
    5        8.135118
    6       15.928836
    7       17.309705
    8       20.681512
    9       23.901071
 
 -0.4375000E+00 -0.4375000E+00  0.3125000E+00  0.1171875E-01
    1        4.242197
    2        5.017799
    3        6.149099
    4        6.695141
    5        8.120237
    6       14.258274
    7       16.493560
    8       23.050951
    9       27.161544
 
  0.4375000E+00  0.4375000E+00  0.4375000E+00  0.3906250E-02
    1        3.576667
    2        5.663612
    3        5.663612
    4        8.102324
    5        8.102325
    6        9.600447
    7       16.923078
    8       26.937504
    9       31.251220
 
 -0.4375000E+00  0.4375000E+00  0.4375000E+00  0.1171875E-01
    1        3.881239
    2        5.412447
    3        5.918891
    4        7.113002
    5        8.074007
    6       11.804638
    7       16.185863
    8       26.413139
    9       28.994623
