 vasp.5.3.5 31Mar14 (build Jan 09 2015 16:57:47) complex                        
  
 executed on             LinuxIFC date 2015.03.24  14:26:00
 serial version


--------------------------------------------------------------------------------------------------------


 INCAR:
 POTCAR:    PAW_PBE Ag 02Apr2005                  
 POTCAR:    PAW_PBE Ag 02Apr2005                  
   VRHFIN =Ag : s1 d10                                                          
   LEXCH  = PE                                                                  
   EATOM  =  1037.2675 eV,   76.2370 Ry                                         
                                                                                
   TITEL  = PAW_PBE Ag 02Apr2005                                                
   LULTRA =        F    use ultrasoft PP ?                                      
   IUNSCR =        1    unscreen: 0-lin 1-nonlin 2-no                           
   RPACOR =    2.000    partial core radius                                     
   POMASS =  107.868; ZVAL   =   11.000    mass and valenz                      
   RCORE  =    2.500    outmost cutoff radius                                   
   RWIGS  =    2.840; RWIGS  =    1.503    wigner-seitz radius (au A)           
   ENMAX  =  249.844; ENMIN  =  187.383 eV                                      
   ICORE  =        3    local potential                                         
   LCOR   =        T    correct aug charges                                     
   LPAW   =        T    paw PP                                                  
   EAUG   =  412.496                                                            
   DEXC   =    0.000                                                            
   RMAX   =    2.560    core radius for proj-oper                               
   RAUG   =    1.300    factor for augmentation sphere                          
   RDEP   =    2.576    radius for radial grids                                 
   RDEPT  =    2.072    core radius for aug-charge                              
                                                                                
   Atomic configuration                                                         
   12 entries                                                                   
     n  l   j            E        occ.                                          
     1  0  0.50    -25324.9161   2.0000                                         
     2  0  0.50     -3728.5341   2.0000                                         
     2  1  1.50     -3344.0404   6.0000                                         
     3  0  0.50      -683.5581   2.0000                                         
     3  1  1.50      -557.3225   6.0000                                         
     3  2  2.50      -358.3853  10.0000                                         
     4  0  0.50       -95.0341   2.0000                                         
     4  1  1.50       -58.5511   6.0000                                         
     4  2  2.50        -7.4440  10.0000                                         
     5  0  0.50        -4.4045   1.0000                                         
     5  1  0.50        -1.3606   0.0000                                         
     4  3  2.50        -1.3606   0.0000                                         
   Description                                                                  
     l       E           TYP  RCUT    TYP  RCUT                                 
     2     -7.4439781     23  2.400                                             
     2     -8.8045607     23  2.400                                             
     0     -4.4044681     23  2.400                                             
     0      1.9520038     23  2.400                                             
     1     -1.3605826     23  2.500                                             
     1     27.2116520     23  2.500                                             
     3     -4.0817478     23  2.400                                             
  local pseudopotential read in
  partial core-charges read in
  partial kinetic energy density read in
  atomic valenz-charges read in
  non local Contribution for L=           2  read in
    real space projection operators read in
  non local Contribution for L=           2  read in
    real space projection operators read in
  non local Contribution for L=           0  read in
    real space projection operators read in
  non local Contribution for L=           0  read in
    real space projection operators read in
  non local Contribution for L=           1  read in
    real space projection operators read in
  non local Contribution for L=           1  read in
    real space projection operators read in
    PAW grid and wavefunctions read in
 
   number of l-projection  operators is LMAX  =           6
   number of lm-projection operators is LMMAX =          18
 
  PAW_PBE Ag 02Apr2005                  :
 energy of atom  1       EATOM=-1037.2675
 kinetic energy error for atom=    0.0272 (will be added to EATOM!!)
 
 
 POSCAR: Ag                                      
  positions in cartesian coordinates
  No initial velocities read in
 exchange correlation table for  LEXCH =        8
   RHO(1)=    0.500       N(1)  =     2000
   RHO(2)=  100.500       N(2)  =     4000

 VTST: version 3.1, (03/28/14)

 CHAIN: initializing optimizer
 
 OPT: Using VASP Conjugate-Gradient optimizer
 CHAIN: Read ICHAIN            0
 
 POSCAR: Ag                                      
  positions in cartesian coordinates
  No initial velocities read in
 


--------------------------------------------------------------------------------------------------------


 ion  position               nearest neighbor table
   1  0.000  0.000  0.000-
 
  LATTYP: Found a face centered cubic cell.
 ALAT       =     3.8446000000
  
  Lattice vectors:
  
 A1 = (   2.7185427309,   0.0000000000,   0.0000000000)
 A2 = (   1.3592713655,   2.3543270663,   0.0000000000)
 A3 = (   1.3592713655,   0.7847756888,   2.2196808449)


Analysis of symmetry for initial positions (statically):
=====================================================================
 Subroutine PRICEL returns:
 Original cell was already a primitive cell.
 

 Routine SETGRP: Setting up the symmetry group for a 
 face centered cubic supercell.


 Subroutine GETGRP returns: Found 48 space group operations
 (whereof 48 operations were pure point group operations)
 out of a pool of 48 trial point group operations.


The static configuration has the point symmetry O_h .


Analysis of symmetry for dynamics (positions and initial velocities):
=====================================================================
 Subroutine PRICEL returns:
 Original cell was already a primitive cell.
 

 Routine SETGRP: Setting up the symmetry group for a 
 face centered cubic supercell.


 Subroutine GETGRP returns: Found 48 space group operations
 (whereof 48 operations were pure point group operations)
 out of a pool of 48 trial point group operations.


The dynamic configuration has the point symmetry O_h .
 
 
 KPOINTS: KPOINTS created by Atomic Simulation Env

Automatic generation of k-mesh.
Space group operators:
 irot       det(A)        alpha          n_x          n_y          n_z        tau_x        tau_y        tau_z
    1     1.000000     0.000000     1.000000     0.000000     0.000000     0.000000     0.000000     0.000000
    2    -1.000000     0.000000     1.000000     0.000000     0.000000     0.000000     0.000000     0.000000
    3     1.000000   120.000000    -0.816497    -0.471405    -0.333333     0.000000     0.000000     0.000000
    4    -1.000000   120.000000    -0.816497    -0.471405    -0.333333     0.000000     0.000000     0.000000
    5     1.000000   120.000000     0.816497     0.471405     0.333333     0.000000     0.000000     0.000000
    6    -1.000000   120.000000     0.816497     0.471405     0.333333     0.000000     0.000000     0.000000
    7     1.000000    90.000000    -0.707107    -0.408248     0.577350     0.000000     0.000000     0.000000
    8    -1.000000    90.000000    -0.707107    -0.408248     0.577350     0.000000     0.000000     0.000000
    9     1.000000   180.000000     1.000000     0.000000     0.000000     0.000000     0.000000     0.000000
   10    -1.000000   180.000000     1.000000     0.000000     0.000000     0.000000     0.000000     0.000000
   11     1.000000    90.000000     0.707107    -0.408248     0.577350     0.000000     0.000000     0.000000
   12    -1.000000    90.000000     0.707107    -0.408248     0.577350     0.000000     0.000000     0.000000
   13     1.000000   180.000000     0.707107     0.408248    -0.577350     0.000000     0.000000     0.000000
   14    -1.000000   180.000000     0.707107     0.408248    -0.577350     0.000000     0.000000     0.000000
   15     1.000000   120.000000     0.816497    -0.471405    -0.333333     0.000000     0.000000     0.000000
   16    -1.000000   120.000000     0.816497    -0.471405    -0.333333     0.000000     0.000000     0.000000
   17     1.000000   120.000000     0.000000    -0.942809     0.333333     0.000000     0.000000     0.000000
   18    -1.000000   120.000000     0.000000    -0.942809     0.333333     0.000000     0.000000     0.000000
   19     1.000000    90.000000     0.707107     0.408248    -0.577350     0.000000     0.000000     0.000000
   20    -1.000000    90.000000     0.707107     0.408248    -0.577350     0.000000     0.000000     0.000000
   21     1.000000    90.000000     0.000000    -0.816497    -0.577350     0.000000     0.000000     0.000000
   22    -1.000000    90.000000     0.000000    -0.816497    -0.577350     0.000000     0.000000     0.000000
   23     1.000000   180.000000     0.500000     0.866025     0.000000     0.000000     0.000000     0.000000
   24    -1.000000   180.000000     0.500000     0.866025     0.000000     0.000000     0.000000     0.000000
   25     1.000000   120.000000     0.000000     0.942809    -0.333333     0.000000     0.000000     0.000000
   26    -1.000000   120.000000     0.000000     0.942809    -0.333333     0.000000     0.000000     0.000000
   27     1.000000   120.000000     0.000000     0.000000    -1.000000     0.000000     0.000000     0.000000
   28    -1.000000   120.000000     0.000000     0.000000    -1.000000     0.000000     0.000000     0.000000
   29     1.000000   180.000000     0.000000    -0.816497    -0.577350     0.000000     0.000000     0.000000
   30    -1.000000   180.000000     0.000000    -0.816497    -0.577350     0.000000     0.000000     0.000000
   31     1.000000    90.000000    -0.707107     0.408248    -0.577350     0.000000     0.000000     0.000000
   32    -1.000000    90.000000    -0.707107     0.408248    -0.577350     0.000000     0.000000     0.000000
   33     1.000000   179.999999     0.500000     0.288675     0.816497     0.000000     0.000000     0.000000
   34    -1.000000   179.999999     0.500000     0.288675     0.816497     0.000000     0.000000     0.000000
   35     1.000000    90.000000     0.000000     0.816497     0.577350     0.000000     0.000000     0.000000
   36    -1.000000    90.000000     0.000000     0.816497     0.577350     0.000000     0.000000     0.000000
   37     1.000000   120.000000    -0.816497     0.471405     0.333333     0.000000     0.000000     0.000000
   38    -1.000000   120.000000    -0.816497     0.471405     0.333333     0.000000     0.000000     0.000000
   39     1.000000   179.999999    -0.707107     0.408248    -0.577350     0.000000     0.000000     0.000000
   40    -1.000000   179.999999    -0.707107     0.408248    -0.577350     0.000000     0.000000     0.000000
   41     1.000000   120.000000     0.000000     0.000000     1.000000     0.000000     0.000000     0.000000
   42    -1.000000   120.000000     0.000000     0.000000     1.000000     0.000000     0.000000     0.000000
   43     1.000000   180.000000     0.000000    -0.577350     0.816497     0.000000     0.000000     0.000000
   44    -1.000000   180.000000     0.000000    -0.577350     0.816497     0.000000     0.000000     0.000000
   45     1.000000   179.999999    -0.500000     0.866025     0.000000     0.000000     0.000000     0.000000
   46    -1.000000   179.999999    -0.500000     0.866025     0.000000     0.000000     0.000000     0.000000
   47     1.000000   179.999999    -0.500000     0.288675     0.816497     0.000000     0.000000     0.000000
   48    -1.000000   179.999999    -0.500000     0.288675     0.816497     0.000000     0.000000     0.000000
 
 Subroutine IBZKPT returns following result:
 ===========================================
 
 Found     60 irreducible k-points:
 
 Following reciprocal coordinates:
            Coordinates               Weight
  0.062500  0.062500  0.062500     96.000000
  0.187500  0.062500  0.062500    288.000000
  0.312500  0.062500  0.062500    288.000000
  0.437500  0.062500  0.062500    288.000000
 -0.437500  0.062500  0.062500    288.000000
 -0.312500  0.062500  0.062500    288.000000
 -0.187500  0.062500  0.062500    288.000000
 -0.062500  0.062500  0.062500    288.000000
  0.187500  0.187500  0.062500    288.000000
  0.312500  0.187500  0.062500    576.000000
  0.437500  0.187500  0.062500    576.000000
 -0.437500  0.187500  0.062500    576.000000
 -0.312500  0.187500  0.062500    576.000000
 -0.187500  0.187500  0.062500    576.000000
 -0.062500  0.187500  0.062500    576.000000
  0.312500  0.312500  0.062500    288.000000
  0.437500  0.312500  0.062500    576.000000
 -0.437500  0.312500  0.062500    576.000000
 -0.312500  0.312500  0.062500    576.000000
 -0.187500  0.312500  0.062500    576.000000
 -0.062500  0.312500  0.062500    576.000000
  0.437500  0.437500  0.062500    288.000000
 -0.437500  0.437500  0.062500    576.000000
 -0.312500  0.437500  0.062500    576.000000
 -0.187500  0.437500  0.062500    576.000000
 -0.062500  0.437500  0.062500    576.000000
 -0.437500 -0.437500  0.062500    288.000000
 -0.312500 -0.437500  0.062500    576.000000
 -0.187500 -0.437500  0.062500    576.000000
 -0.312500 -0.312500  0.062500    288.000000
 -0.187500 -0.312500  0.062500    576.000000
 -0.187500 -0.187500  0.062500    288.000000
  0.187500  0.187500  0.187500     96.000000
  0.312500  0.187500  0.187500    288.000000
  0.437500  0.187500  0.187500    288.000000
 -0.437500  0.187500  0.187500    288.000000
 -0.312500  0.187500  0.187500    288.000000
 -0.187500  0.187500  0.187500    288.000000
  0.312500  0.312500  0.187500    288.000000
  0.437500  0.312500  0.187500    576.000000
 -0.437500  0.312500  0.187500    576.000000
 -0.312500  0.312500  0.187500    576.000000
 -0.187500  0.312500  0.187500    576.000000
  0.437500  0.437500  0.187500    288.000000
 -0.437500  0.437500  0.187500    576.000000
 -0.312500  0.437500  0.187500    576.000000
 -0.187500  0.437500  0.187500    576.000000
 -0.437500 -0.437500  0.187500    288.000000
 -0.312500 -0.437500  0.187500    576.000000
 -0.312500 -0.312500  0.187500    288.000000
  0.312500  0.312500  0.312500     96.000000
  0.437500  0.312500  0.312500    288.000000
 -0.437500  0.312500  0.312500    288.000000
 -0.312500  0.312500  0.312500    288.000000
  0.437500  0.437500  0.312500    288.000000
 -0.437500  0.437500  0.312500    576.000000
 -0.312500  0.437500  0.312500    576.000000
 -0.437500 -0.437500  0.312500    288.000000
  0.437500  0.437500  0.437500     96.000000
 -0.437500  0.437500  0.437500    288.000000
 
 Following cartesian coordinates:
            Coordinates               Weight
  0.022990  0.013273  0.009386     96.000000
  0.068971 -0.013273 -0.009386    288.000000
  0.114951 -0.039820 -0.028157    288.000000
  0.160932 -0.066367 -0.046929    288.000000
 -0.160932  0.119461  0.084472    288.000000
 -0.114951  0.092914  0.065700    288.000000
 -0.068971  0.066367  0.046929    288.000000
 -0.022990  0.039820  0.028157    288.000000
  0.068971  0.039820 -0.028157    288.000000
  0.114951  0.013273 -0.046929    576.000000
  0.160932 -0.013273 -0.065700    576.000000
 -0.160932  0.172555  0.065700    576.000000
 -0.114951  0.146008  0.046929    576.000000
 -0.068971  0.119461  0.028157    576.000000
 -0.022990  0.092914  0.009386    576.000000
  0.114951  0.066367 -0.065700    288.000000
  0.160932  0.039820 -0.084472    576.000000
 -0.160932  0.225648  0.046929    576.000000
 -0.114951  0.199101  0.028157    576.000000
 -0.068971  0.172555  0.009386    576.000000
 -0.022990  0.146008 -0.009386    576.000000
  0.160932  0.092914 -0.103243    288.000000
 -0.160932  0.278742  0.028157    576.000000
 -0.114951  0.252195  0.009386    576.000000
 -0.068971  0.225648 -0.009386    576.000000
 -0.022990  0.199101 -0.028157    576.000000
 -0.160932 -0.092914  0.159557    288.000000
 -0.114951 -0.119461  0.140786    576.000000
 -0.068971 -0.146008  0.122015    576.000000
 -0.114951 -0.066367  0.122015    288.000000
 -0.068971 -0.092914  0.103243    576.000000
 -0.068971 -0.039820  0.084472    288.000000
  0.068971  0.039820  0.028157     96.000000
  0.114951  0.013273  0.009386    288.000000
  0.160932 -0.013273 -0.009386    288.000000
 -0.160932  0.172555  0.122015    288.000000
 -0.114951  0.146008  0.103243    288.000000
 -0.068971  0.119461  0.084472    288.000000
  0.114951  0.066367 -0.009386    288.000000
  0.160932  0.039820 -0.028157    576.000000
 -0.160932  0.225648  0.103243    576.000000
 -0.114951  0.199101  0.084472    576.000000
 -0.068971  0.172555  0.065700    576.000000
  0.160932  0.092914 -0.046929    288.000000
 -0.160932  0.278742  0.084472    576.000000
 -0.114951  0.252195  0.065700    576.000000
 -0.068971  0.225648  0.046929    576.000000
 -0.160932 -0.092914  0.215872    288.000000
 -0.114951 -0.119461  0.197100    576.000000
 -0.114951 -0.066367  0.178329    288.000000
  0.114951  0.066367  0.046929     96.000000
  0.160932  0.039820  0.028157    288.000000
 -0.160932  0.225648  0.159557    288.000000
 -0.114951  0.199101  0.140786    288.000000
  0.160932  0.092914  0.009386    288.000000
 -0.160932  0.278742  0.140786    576.000000
 -0.114951  0.252195  0.122015    576.000000
 -0.160932 -0.092914  0.272186    288.000000
  0.160932  0.092914  0.065700     96.000000
 -0.160932  0.278742  0.197100    288.000000
 


--------------------------------------------------------------------------------------------------------




 Dimension of arrays:
   k-points           NKPTS =     60   k-points in BZ     NKDIM =     60   number of bands    NBANDS=      9
   number of dos      NEDOS =    301   number of ions     NIONS =      1
   non local maximal  LDIM  =      6   non local SUM 2l+1 LMDIM =     18
   total plane-waves  NPLWV =   1728
   max r-space proj   IRMAX =      1   max aug-charges    IRDMAX=   6179
   dimension x,y,z NGX =    12 NGY =   12 NGZ =   12
   dimension x,y,z NGXF=    24 NGYF=   24 NGZF=   24
   support grid    NGXF=    24 NGYF=   24 NGZF=   24
   ions per type =               1
 NGX,Y,Z   is equivalent  to a cutoff of   7.34,  7.34,  7.34 a.u.
 NGXF,Y,Z  is equivalent  to a cutoff of  14.68, 14.68, 14.68 a.u.


 I would recommend the setting:
   dimension x,y,z NGX =    12 NGY =   12 NGZ =   12
 SYSTEM =  unknown system                          
 POSCAR =  Ag                                      

 Startparameter for this run:
   NWRITE =      2    write-flag & timer
   PREC   = normal    normal or accurate (medium, high low for compatibility)
   ISTART =      0    job   : 0-new  1-cont  2-samecut
   ICHARG =      2    charge: 1-file 2-atom 10-const
   ISPIN  =      1    spin polarized calculation?
   LNONCOLLINEAR =      F non collinear calculations
   LSORBIT =      F    spin-orbit coupling
   INIWAV =      1    electr: 0-lowe 1-rand  2-diag
   LASPH  =      F    aspherical Exc in radial PAW
   METAGGA=      F    non-selfconsistent MetaGGA calc.

 Electronic Relaxation 1
   ENCUT  =  350.0 eV  25.72 Ry    5.07 a.u.   4.15  4.15  4.15*2*pi/ulx,y,z
   ENINI  =  350.0     initial cutoff
   ENAUG  =  412.5 eV  augmentation charge cutoff
   NELM   =     60;   NELMIN=  2; NELMDL= -5     # of ELM steps 
   EDIFF  = 0.1E-03   stopping-criterion for ELM
   LREAL  =      F    real-space projection
   NLSPLINE    = F    spline interpolate recip. space projectors
   LCOMPAT=      F    compatible to vasp.4.4
   GGA_COMPAT  = T    GGA compatible to vasp.4.4-vasp.4.6
   LMAXPAW     = -100 max onsite density
   LMAXMIX     =    2 max onsite mixed and CHGCAR
   VOSKOWN=      0    Vosko Wilk Nusair interpolation
   ROPT   =    0.00000
 Ionic relaxation
   EDIFFG = 0.1E-02   stopping-criterion for IOM
   NSW    =     30    number of steps for IOM
   NBLOCK =      1;   KBLOCK =     30    inner block; outer block 
   IBRION =      2    ionic relax: 0-MD 1-quasi-New 2-CG
   NFREE  =      1    steps in history (QN), initial steepest desc. (CG)
   ISIF   =      2    stress and relaxation
   IWAVPR =     11    prediction:  0-non 1-charg 2-wave 3-comb
   ISYM   =      2    0-nonsym 1-usesym 2-fastsym
   LCORR  =      T    Harris-Foulkes like correction to forces

   POTIM  = 0.5000    time-step for ionic-motion
   TEIN   =    0.0    initial temperature
   TEBEG  =    0.0;   TEEND  =   0.0 temperature during run
   SMASS  =  -3.00    Nose mass-parameter (am)
   estimated Nose-frequenzy (Omega)   =  0.10E-29 period in steps =****** mass=  -0.169E-27a.u.
   SCALEE = 1.0000    scale energy and forces
   NPACO  =    256;   APACO  = 16.0  distance and # of slots for P.C.
   PSTRESS=    0.0 pullay stress

  Mass of Ions in am
   POMASS = 107.87
  Ionic Valenz
   ZVAL   =  11.00
  Atomic Wigner-Seitz radii
   RWIGS  =  -1.00
  virtual crystal weights 
   VCA    =   1.00
   NELECT =      11.0000    total number of electrons
   NUPDOWN=      -1.0000    fix difference up-down

 DOS related values:
   EMIN   =  10.00;   EMAX   =-10.00  energy-range for DOS
   EFERMI =   0.00
   ISMEAR =     1;   SIGMA  =   0.20  broadening in eV -4-tet -1-fermi 0-gaus

 Electronic relaxation 2 (details)
   IALGO  =     38    algorithm
   LDIAG  =      T    sub-space diagonalisation (order eigenvalues)
   LSUBROT=      F    optimize rotation matrix (better conditioning)
   TURBO    =      0    0=normal 1=particle mesh
   IRESTART =      0    0=no restart 2=restart with 2 vectors
   NREBOOT  =      0    no. of reboots
   NMIN     =      0    reboot dimension
   EREF     =   0.00    reference energy to select bands
   IMIX   =      4    mixing-type and parameters
     AMIX     =   0.40;   BMIX     =  1.00
     AMIX_MAG =   1.60;   BMIX_MAG =  1.00
     AMIN     =   0.10
     WC   =   100.;   INIMIX=   1;  MIXPRE=   1;  MAXMIX= -45

 Intra band minimization:
   WEIMIN = 0.0010     energy-eigenvalue tresh-hold
   EBREAK =  0.28E-05  absolut break condition
   DEPER  =   0.30     relativ break condition  

   TIME   =   0.40     timestep for ELM

  volume/ion in A,a.u.               =      14.21        95.87
  Fermi-wavevector in a.u.,A,eV,Ry     =   1.503285  2.840796 30.747327  2.259865
  Thomas-Fermi vector in A             =   2.614415
 
 Write flags
   LWAVE  =      T    write WAVECAR
   LCHARG =      T    write CHGCAR
   LVTOT  =      F    write LOCPOT, total local potential
   LVHAR  =      F    write LOCPOT, Hartree potential only
   LELF   =      F    write electronic localiz. function (ELF)
   LORBIT =      0    0 simple, 1 ext, 2 COOP (PROOUT)


 Dipole corrections
   LMONO  =      F    monopole corrections only (constant potential shift)
   LDIPOL =      F    correct potential (dipole corrections)
   IDIPOL =      0    1-x, 2-y, 3-z, 4-all directions 
   EPSILON=  1.0000000 bulk dielectric constant

 Exchange correlation treatment:
   GGA     =    --    GGA type
   LEXCH   =     8    internal setting for exchange type
   VOSKOWN=      0    Vosko Wilk Nusair interpolation
   LHFCALC =     F    Hartree Fock is set to
   LHFONE  =     F    Hartree Fock one center treatment
   AEXX    =    0.0000 exact exchange contribution

 Linear response parameters
   LEPSILON=     F    determine dielectric tensor
   LRPA    =     F    only Hartree local field effects (RPA)
   LNABLA  =     F    use nabla operator in PAW spheres
   LVEL    =     F    velocity operator in full k-point grid
   LINTERFAST=   F  fast interpolation
   KINTER  =     0    interpolate to denser k-point grid
   CSHIFT  =0.1000    complex shift for real part using Kramers Kronig
   OMEGAMAX=  -1.0    maximum frequency
   DEG_THRESHOLD= 0.2000000E-02 threshold for treating states as degnerate
   RTIME   =    0.100 relaxation time in fs

 Orbital magnetization related:
   ORBITALMAG=     F  switch on orbital magnetization
   LCHIMAG   =     F  perturbation theory with respect to B field
   DQ        =  0.001000  dq finite difference perturbation B field



--------------------------------------------------------------------------------------------------------


 conjugate gradient relaxation of ions
 charge density and potential will be updated during run
 non-spin polarized calculation
 Variant of blocked Davidson
 Davidson routine will perform the subspace rotation
 perform sub-space diagonalisation
    after iterative eigenvector-optimisation
 modified Broyden-mixing scheme, WC =      100.0
 initial mixing is a Kerker type mixing with AMIX =  0.4000 and BMIX =      1.0000
 Hartree-type preconditioning will be used
 using additional bands            3
 reciprocal scheme for non local part
 use partial core corrections
 calculate Harris-corrections to forces 
   (improved forces if not selfconsistent)
 use gradient corrections 
 use of overlap-Matrix (Vanderbilt PP)
 Methfessel and Paxton  Order N= 1 SIGMA  =   0.20


--------------------------------------------------------------------------------------------------------


  energy-cutoff  :      350.00
  volume of cell :       14.21
      direct lattice vectors                 reciprocal lattice vectors
     2.718542731  0.000000000  0.000000000     0.367844135 -0.212374911 -0.150171739
     1.359271365  2.354327066  0.000000000     0.000000000  0.424749821 -0.150171739
     1.359271365  0.784775689  2.219680845     0.000000000  0.000000000  0.450515218

  length of vectors
     2.718542731  2.718542731  2.718542731     0.450515218  0.450515218  0.450515218


 
 k-points in units of 2pi/SCALE and weight: KPOINTS created by Atomic Simulation Env
   0.02299026  0.01327343  0.00938573       0.004
   0.06897078 -0.01327343 -0.00938573       0.012
   0.11495129 -0.03982030 -0.02815720       0.012
   0.16093181 -0.06636716 -0.04692867       0.012
  -0.16093181  0.11946089  0.08447160       0.012
  -0.11495129  0.09291402  0.06570014       0.012
  -0.06897078  0.06636716  0.04692867       0.012
  -0.02299026  0.03982030  0.02815720       0.012
   0.06897078  0.03982030 -0.02815720       0.012
   0.11495129  0.01327343 -0.04692867       0.023
   0.16093181 -0.01327343 -0.06570014       0.023
  -0.16093181  0.17255461  0.06570014       0.023
  -0.11495129  0.14600775  0.04692867       0.023
  -0.06897078  0.11946089  0.02815720       0.023
  -0.02299026  0.09291402  0.00938573       0.023
   0.11495129  0.06636716 -0.06570014       0.012
   0.16093181  0.03982030 -0.08447160       0.023
  -0.16093181  0.22564834  0.04692867       0.023
  -0.11495129  0.19910148  0.02815720       0.023
  -0.06897078  0.17255461  0.00938573       0.023
  -0.02299026  0.14600775 -0.00938573       0.023
   0.16093181  0.09291402 -0.10324307       0.012
  -0.16093181  0.27874207  0.02815720       0.023
  -0.11495129  0.25219521  0.00938573       0.023
  -0.06897078  0.22564834 -0.00938573       0.023
  -0.02299026  0.19910148 -0.02815720       0.023
  -0.16093181 -0.09291402  0.15955747       0.012
  -0.11495129 -0.11946089  0.14078601       0.023
  -0.06897078 -0.14600775  0.12201454       0.023
  -0.11495129 -0.06636716  0.12201454       0.012
  -0.06897078 -0.09291402  0.10324307       0.023
  -0.06897078 -0.03982030  0.08447160       0.012
   0.06897078  0.03982030  0.02815720       0.004
   0.11495129  0.01327343  0.00938573       0.012
   0.16093181 -0.01327343 -0.00938573       0.012
  -0.16093181  0.17255461  0.12201454       0.012
  -0.11495129  0.14600775  0.10324307       0.012
  -0.06897078  0.11946089  0.08447160       0.012
   0.11495129  0.06636716 -0.00938573       0.012
   0.16093181  0.03982030 -0.02815720       0.023
  -0.16093181  0.22564834  0.10324307       0.023
  -0.11495129  0.19910148  0.08447160       0.023
  -0.06897078  0.17255461  0.06570014       0.023
   0.16093181  0.09291402 -0.04692867       0.012
  -0.16093181  0.27874207  0.08447160       0.023
  -0.11495129  0.25219521  0.06570014       0.023
  -0.06897078  0.22564834  0.04692867       0.023
  -0.16093181 -0.09291402  0.21587188       0.012
  -0.11495129 -0.11946089  0.19710041       0.023
  -0.11495129 -0.06636716  0.17832894       0.012
   0.11495129  0.06636716  0.04692867       0.004
   0.16093181  0.03982030  0.02815720       0.012
  -0.16093181  0.22564834  0.15955747       0.012
  -0.11495129  0.19910148  0.14078601       0.012
   0.16093181  0.09291402  0.00938573       0.012
  -0.16093181  0.27874207  0.14078601       0.023
  -0.11495129  0.25219521  0.12201454       0.023
  -0.16093181 -0.09291402  0.27218628       0.012
   0.16093181  0.09291402  0.06570014       0.004
  -0.16093181  0.27874207  0.19710041       0.012
 
 k-points in reciprocal lattice and weights: KPOINTS created by Atomic Simulation Env
   0.06250000  0.06250000  0.06250000       0.004
   0.18750000  0.06250000  0.06250000       0.012
   0.31250000  0.06250000  0.06250000       0.012
   0.43750000  0.06250000  0.06250000       0.012
  -0.43750000  0.06250000  0.06250000       0.012
  -0.31250000  0.06250000  0.06250000       0.012
  -0.18750000  0.06250000  0.06250000       0.012
  -0.06250000  0.06250000  0.06250000       0.012
   0.18750000  0.18750000  0.06250000       0.012
   0.31250000  0.18750000  0.06250000       0.023
   0.43750000  0.18750000  0.06250000       0.023
  -0.43750000  0.18750000  0.06250000       0.023
  -0.31250000  0.18750000  0.06250000       0.023
  -0.18750000  0.18750000  0.06250000       0.023
  -0.06250000  0.18750000  0.06250000       0.023
   0.31250000  0.31250000  0.06250000       0.012
   0.43750000  0.31250000  0.06250000       0.023
  -0.43750000  0.31250000  0.06250000       0.023
  -0.31250000  0.31250000  0.06250000       0.023
  -0.18750000  0.31250000  0.06250000       0.023
  -0.06250000  0.31250000  0.06250000       0.023
   0.43750000  0.43750000  0.06250000       0.012
  -0.43750000  0.43750000  0.06250000       0.023
  -0.31250000  0.43750000  0.06250000       0.023
  -0.18750000  0.43750000  0.06250000       0.023
  -0.06250000  0.43750000  0.06250000       0.023
  -0.43750000 -0.43750000  0.06250000       0.012
  -0.31250000 -0.43750000  0.06250000       0.023
  -0.18750000 -0.43750000  0.06250000       0.023
  -0.31250000 -0.31250000  0.06250000       0.012
  -0.18750000 -0.31250000  0.06250000       0.023
  -0.18750000 -0.18750000  0.06250000       0.012
   0.18750000  0.18750000  0.18750000       0.004
   0.31250000  0.18750000  0.18750000       0.012
   0.43750000  0.18750000  0.18750000       0.012
  -0.43750000  0.18750000  0.18750000       0.012
  -0.31250000  0.18750000  0.18750000       0.012
  -0.18750000  0.18750000  0.18750000       0.012
   0.31250000  0.31250000  0.18750000       0.012
   0.43750000  0.31250000  0.18750000       0.023
  -0.43750000  0.31250000  0.18750000       0.023
  -0.31250000  0.31250000  0.18750000       0.023
  -0.18750000  0.31250000  0.18750000       0.023
   0.43750000  0.43750000  0.18750000       0.012
  -0.43750000  0.43750000  0.18750000       0.023
  -0.31250000  0.43750000  0.18750000       0.023
  -0.18750000  0.43750000  0.18750000       0.023
  -0.43750000 -0.43750000  0.18750000       0.012
  -0.31250000 -0.43750000  0.18750000       0.023
  -0.31250000 -0.31250000  0.18750000       0.012
   0.31250000  0.31250000  0.31250000       0.004
   0.43750000  0.31250000  0.31250000       0.012
  -0.43750000  0.31250000  0.31250000       0.012
  -0.31250000  0.31250000  0.31250000       0.012
   0.43750000  0.43750000  0.31250000       0.012
  -0.43750000  0.43750000  0.31250000       0.023
  -0.31250000  0.43750000  0.31250000       0.023
  -0.43750000 -0.43750000  0.31250000       0.012
   0.43750000  0.43750000  0.43750000       0.004
  -0.43750000  0.43750000  0.43750000       0.012
 
 position of ions in fractional coordinates (direct lattice) 
   0.00000000  0.00000000  0.00000000
 
 position of ions in cartesian coordinates  (Angst):
   0.00000000  0.00000000  0.00000000
 


--------------------------------------------------------------------------------------------------------


 k-point  1 :   0.0625 0.0625 0.0625  plane waves:     193
 k-point  2 :   0.1875 0.0625 0.0625  plane waves:     208
 k-point  3 :   0.3125 0.0625 0.0625  plane waves:     209
 k-point  4 :   0.4375 0.0625 0.0625  plane waves:     214
 k-point  5 :  -0.4375 0.0625 0.0625  plane waves:     216
 k-point  6 :  -0.3125 0.0625 0.0625  plane waves:     211
 k-point  7 :  -0.1875 0.0625 0.0625  plane waves:     204
 k-point  8 :  -0.0625 0.0625 0.0625  plane waves:     201
 k-point  9 :   0.1875 0.1875 0.0625  plane waves:     209
 k-point 10 :   0.3125 0.1875 0.0625  plane waves:     211
 k-point 11 :   0.4375 0.1875 0.0625  plane waves:     209
 k-point 12 :  -0.4375 0.1875 0.0625  plane waves:     215
 k-point 13 :  -0.3125 0.1875 0.0625  plane waves:     210
 k-point 14 :  -0.1875 0.1875 0.0625  plane waves:     208
 k-point 15 :  -0.0625 0.1875 0.0625  plane waves:     209
 k-point 16 :   0.3125 0.3125 0.0625  plane waves:     213
 k-point 17 :   0.4375 0.3125 0.0625  plane waves:     210
 k-point 18 :  -0.4375 0.3125 0.0625  plane waves:     212
 k-point 19 :  -0.3125 0.3125 0.0625  plane waves:     212
 k-point 20 :  -0.1875 0.3125 0.0625  plane waves:     212
 k-point 21 :  -0.0625 0.3125 0.0625  plane waves:     210
 k-point 22 :   0.4375 0.4375 0.0625  plane waves:     211
 k-point 23 :  -0.4375 0.4375 0.0625  plane waves:     212
 k-point 24 :  -0.3125 0.4375 0.0625  plane waves:     217
 k-point 25 :  -0.1875 0.4375 0.0625  plane waves:     210
 k-point 26 :  -0.0625 0.4375 0.0625  plane waves:     213
 k-point 27 :  -0.4375-0.4375 0.0625  plane waves:     217
 k-point 28 :  -0.3125-0.4375 0.0625  plane waves:     209
 k-point 29 :  -0.1875-0.4375 0.0625  plane waves:     215
 k-point 30 :  -0.3125-0.3125 0.0625  plane waves:     214
 k-point 31 :  -0.1875-0.3125 0.0625  plane waves:     214
 k-point 32 :  -0.1875-0.1875 0.0625  plane waves:     207
 k-point 33 :   0.1875 0.1875 0.1875  plane waves:     205
 k-point 34 :   0.3125 0.1875 0.1875  plane waves:     208
 k-point 35 :   0.4375 0.1875 0.1875  plane waves:     212
 k-point 36 :  -0.4375 0.1875 0.1875  plane waves:     211
 k-point 37 :  -0.3125 0.1875 0.1875  plane waves:     212
 k-point 38 :  -0.1875 0.1875 0.1875  plane waves:     216
 k-point 39 :   0.3125 0.3125 0.1875  plane waves:     210
 k-point 40 :   0.4375 0.3125 0.1875  plane waves:     210
 k-point 41 :  -0.4375 0.3125 0.1875  plane waves:     209
 k-point 42 :  -0.3125 0.3125 0.1875  plane waves:     212
 k-point 43 :  -0.1875 0.3125 0.1875  plane waves:     210
 k-point 44 :   0.4375 0.4375 0.1875  plane waves:     213
 k-point 45 :  -0.4375 0.4375 0.1875  plane waves:     212
 k-point 46 :  -0.3125 0.4375 0.1875  plane waves:     209
 k-point 47 :  -0.1875 0.4375 0.1875  plane waves:     212
 k-point 48 :  -0.4375-0.4375 0.1875  plane waves:     211
 k-point 49 :  -0.3125-0.4375 0.1875  plane waves:     211
 k-point 50 :  -0.3125-0.3125 0.1875  plane waves:     211
 k-point 51 :   0.3125 0.3125 0.3125  plane waves:     205
 k-point 52 :   0.4375 0.3125 0.3125  plane waves:     211
 k-point 53 :  -0.4375 0.3125 0.3125  plane waves:     215
 k-point 54 :  -0.3125 0.3125 0.3125  plane waves:     218
 k-point 55 :   0.4375 0.4375 0.3125  plane waves:     209
 k-point 56 :  -0.4375 0.4375 0.3125  plane waves:     211
 k-point 57 :  -0.3125 0.4375 0.3125  plane waves:     210
 k-point 58 :  -0.4375-0.4375 0.3125  plane waves:     215
 k-point 59 :   0.4375 0.4375 0.4375  plane waves:     213
 k-point 60 :  -0.4375 0.4375 0.4375  plane waves:     213

 maximum number of plane-waves:       218
 maximum index in each direction: 
   IXMAX=    4   IYMAX=    4   IZMAX=    4
   IXMIN=   -4   IYMIN=   -4   IZMIN=   -4

 WARNING: aliasing errors must be expected set NGX to  18 to avoid them
 WARNING: aliasing errors must be expected set NGY to  18 to avoid them
 WARNING: aliasing errors must be expected set NGZ to  18 to avoid them
 aliasing errors are usually negligible using standard VASP settings
 and one can safely disregard these warnings

 total amount of memory used by VASP on root node    34712. kBytes
========================================================================

   base      :      30000. kBytes
   nonl-proj :       1887. kBytes
   grid      :        771. kBytes
   one-center:         15. kBytes
   wavefun   :       2039. kBytes
 
     INWAV:  cpu time    0.00: real time    0.00
 Broyden mixing: mesh for mixing (old mesh)
   NGX =  9   NGY =  9   NGZ =  9
  (NGX  = 24   NGY  = 24   NGZ  = 24)
  gives a total of    729 points

 initial charge density was supplied:
 charge density of overlapping atoms calculated
 number of electron      11.0000000 magnetization 
 keeping initial charge density in first step


--------------------------------------------------------------------------------------------------------


 Maximum index for augmentation-charges         5775 (set IRDMAX)


--------------------------------------------------------------------------------------------------------


 First call to EWALD:  gamma=   0.732
 Maximum number of real-space cells 3x 3x 3
 Maximum number of reciprocal cells 3x 3x 3

    FEWALD:  cpu time    0.00: real time    0.00


----------------------------------------- Iteration    1(   1)  ---------------------------------------


    POTLOK:  cpu time    0.01: real time    0.01
    SETDIJ:  cpu time    0.01: real time    0.06
     EDDAV:  cpu time    0.40: real time    0.40
       DOS:  cpu time    0.00: real time    0.00
    --------------------------------------------
      LOOP:  cpu time    0.43: real time    0.48

 eigenvalue-minimisations  :  1264
 total energy-change (2. order) : 0.2739189E+02  (-0.4703434E+03)
 number of electron      11.0000000 magnetization 
 augmentation part       11.0000000 magnetization 

 Free energy of the ion-electron system (eV)
  ---------------------------------------------------
  alpha Z        PSCENC =        59.87157560
  Ewald energy   TEWEN  =     -1038.93065647
  -Hartree energ DENC   =      -174.86371052
  -exchange      EXHF   =         0.00000000
  -V(xc)+E(xc)   XCENC  =        -9.83847304
  PAW double counting   =      1003.46214933     -957.34927423
  entropy T*S    EENTRO =         0.00041981
  eigenvalues    EBANDS =       107.79958504
  atomic energy  EATOM  =      1037.24027811
  ---------------------------------------------------
  free energy    TOTEN  =        27.39189362 eV

  energy without entropy =       27.39147382  energy(sigma->0) =       27.39175369


--------------------------------------------------------------------------------------------------------




----------------------------------------- Iteration    1(   2)  ---------------------------------------


     EDDAV:  cpu time    0.38: real time    0.38
       DOS:  cpu time    0.00: real time    0.00
    --------------------------------------------
      LOOP:  cpu time    0.39: real time    0.41

 eigenvalue-minimisations  :  1096
 total energy-change (2. order) :-0.2987257E+02  (-0.2870422E+02)
 number of electron      11.0000000 magnetization 
 augmentation part       11.0000000 magnetization 

 Free energy of the ion-electron system (eV)
  ---------------------------------------------------
  alpha Z        PSCENC =        59.87157560
  Ewald energy   TEWEN  =     -1038.93065647
  -Hartree energ DENC   =      -174.86371052
  -exchange      EXHF   =         0.00000000
  -V(xc)+E(xc)   XCENC  =        -9.83847304
  PAW double counting   =      1003.46214933     -957.34927423
  entropy T*S    EENTRO =         0.00107245
  eigenvalues    EBANDS =        77.92635893
  atomic energy  EATOM  =      1037.24027811
  ---------------------------------------------------
  free energy    TOTEN  =        -2.48067984 eV

  energy without entropy =       -2.48175229  energy(sigma->0) =       -2.48103732


--------------------------------------------------------------------------------------------------------




----------------------------------------- Iteration    1(   3)  ---------------------------------------


     EDDAV:  cpu time    0.40: real time    0.40
       DOS:  cpu time    0.00: real time    0.00
    --------------------------------------------
      LOOP:  cpu time    0.41: real time    0.42

 eigenvalue-minimisations  :  1280
 total energy-change (2. order) :-0.1894136E+00  (-0.1893893E+00)
 number of electron      11.0000000 magnetization 
 augmentation part       11.0000000 magnetization 

 Free energy of the ion-electron system (eV)
  ---------------------------------------------------
  alpha Z        PSCENC =        59.87157560
  Ewald energy   TEWEN  =     -1038.93065647
  -Hartree energ DENC   =      -174.86371052
  -exchange      EXHF   =         0.00000000
  -V(xc)+E(xc)   XCENC  =        -9.83847304
  PAW double counting   =      1003.46214933     -957.34927423
  entropy T*S    EENTRO =         0.00112186
  eigenvalues    EBANDS =        77.73689588
  atomic energy  EATOM  =      1037.24027811
  ---------------------------------------------------
  free energy    TOTEN  =        -2.67009348 eV

  energy without entropy =       -2.67121534  energy(sigma->0) =       -2.67046743


--------------------------------------------------------------------------------------------------------




----------------------------------------- Iteration    1(   4)  ---------------------------------------


     EDDAV:  cpu time    0.37: real time    0.37
       DOS:  cpu time    0.00: real time    0.00
    --------------------------------------------
      LOOP:  cpu time    0.38: real time    0.39

 eigenvalue-minimisations  :  1180
 total energy-change (2. order) :-0.3325699E-03  (-0.3325658E-03)
 number of electron      11.0000000 magnetization 
 augmentation part       11.0000000 magnetization 

 Free energy of the ion-electron system (eV)
  ---------------------------------------------------
  alpha Z        PSCENC =        59.87157560
  Ewald energy   TEWEN  =     -1038.93065647
  -Hartree energ DENC   =      -174.86371052
  -exchange      EXHF   =         0.00000000
  -V(xc)+E(xc)   XCENC  =        -9.83847304
  PAW double counting   =      1003.46214933     -957.34927423
  entropy T*S    EENTRO =         0.00112192
  eigenvalues    EBANDS =        77.73656325
  atomic energy  EATOM  =      1037.24027811
  ---------------------------------------------------
  free energy    TOTEN  =        -2.67042605 eV

  energy without entropy =       -2.67154797  energy(sigma->0) =       -2.67080002


--------------------------------------------------------------------------------------------------------




----------------------------------------- Iteration    1(   5)  ---------------------------------------


     EDDAV:  cpu time    0.35: real time    0.35
       DOS:  cpu time    0.00: real time    0.00
    CHARGE:  cpu time    0.03: real time    0.03
    MIXING:  cpu time    0.00: real time    0.00
    --------------------------------------------
      LOOP:  cpu time    0.39: real time    0.42

 eigenvalue-minimisations  :  1070
 total energy-change (2. order) :-0.1903046E-05  (-0.1903256E-05)
 number of electron      11.0000060 magnetization 
 augmentation part        5.0330200 magnetization 

 Broyden mixing:
  rms(total) = 0.88359E+00    rms(broyden)= 0.88359E+00
  rms(prec ) = 0.16061E+01
  weight for this iteration     100.00

 Free energy of the ion-electron system (eV)
  ---------------------------------------------------
  alpha Z        PSCENC =        59.87157560
  Ewald energy   TEWEN  =     -1038.93065647
  -Hartree energ DENC   =      -174.86371052
  -exchange      EXHF   =         0.00000000
  -V(xc)+E(xc)   XCENC  =        -9.83847304
  PAW double counting   =      1003.46214933     -957.34927423
  entropy T*S    EENTRO =         0.00112192
  eigenvalues    EBANDS =        77.73656135
  atomic energy  EATOM  =      1037.24027811
  ---------------------------------------------------
  free energy    TOTEN  =        -2.67042795 eV

  energy without entropy =       -2.67154988  energy(sigma->0) =       -2.67080193


--------------------------------------------------------------------------------------------------------




----------------------------------------- Iteration    1(   6)  ---------------------------------------


    POTLOK:  cpu time    0.01: real time    0.01
    SETDIJ:  cpu time    0.01: real time    0.01
     EDDAV:  cpu time    0.36: real time    0.36
       DOS:  cpu time    0.00: real time    0.01
    CHARGE:  cpu time    0.03: real time    0.03
    MIXING:  cpu time    0.00: real time    0.00
    --------------------------------------------
      LOOP:  cpu time    0.41: real time    0.42

 eigenvalue-minimisations  :  1097
 total energy-change (2. order) : 0.2712972E+00  (-0.1007994E+00)
 number of electron      11.0000062 magnetization 
 augmentation part        5.1824269 magnetization 

 Broyden mixing:
  rms(total) = 0.52507E+00    rms(broyden)= 0.52507E+00
  rms(prec ) = 0.61193E+00
  weight for this iteration     100.00

 eigenvalues of (default mixing * dielectric matrix)
  average eigenvalue GAMMA=   1.9676
  1.9676

 Free energy of the ion-electron system (eV)
  ---------------------------------------------------
  alpha Z        PSCENC =        59.87157560
  Ewald energy   TEWEN  =     -1038.93065647
  -Hartree energ DENC   =      -165.18855785
  -exchange      EXHF   =         0.00000000
  -V(xc)+E(xc)   XCENC  =       -10.17865206
  PAW double counting   =      1091.44501557    -1046.96009263
  entropy T*S    EENTRO =         0.00081377
  eigenvalues    EBANDS =        70.30114517
  atomic energy  EATOM  =      1037.24027811
  ---------------------------------------------------
  free energy    TOTEN  =        -2.39913079 eV

  energy without entropy =       -2.39994455  energy(sigma->0) =       -2.39940204


--------------------------------------------------------------------------------------------------------




----------------------------------------- Iteration    1(   7)  ---------------------------------------


    POTLOK:  cpu time    0.01: real time    0.01
    SETDIJ:  cpu time    0.01: real time    0.01
     EDDAV:  cpu time    0.40: real time    0.40
       DOS:  cpu time    0.00: real time    0.01
    CHARGE:  cpu time    0.03: real time    0.03
    MIXING:  cpu time    0.00: real time    0.00
    --------------------------------------------
      LOOP:  cpu time    0.45: real time    0.50

 eigenvalue-minimisations  :  1165
 total energy-change (2. order) : 0.2132737E-01  (-0.3843922E-02)
 number of electron      11.0000063 magnetization 
 augmentation part        5.2111141 magnetization 

 Broyden mixing:
  rms(total) = 0.24947E+00    rms(broyden)= 0.24947E+00
  rms(prec ) = 0.25769E+00
  weight for this iteration     100.00

 eigenvalues of (default mixing * dielectric matrix)
  average eigenvalue GAMMA=   1.8811
  1.1545  2.6078

 Free energy of the ion-electron system (eV)
  ---------------------------------------------------
  alpha Z        PSCENC =        59.87157560
  Ewald energy   TEWEN  =     -1038.93065647
  -Hartree energ DENC   =      -162.18868637
  -exchange      EXHF   =         0.00000000
  -V(xc)+E(xc)   XCENC  =       -10.28381085
  PAW double counting   =      1160.95436668    -1117.82711244
  entropy T*S    EENTRO =         0.00035132
  eigenvalues    EBANDS =        68.78589100
  atomic energy  EATOM  =      1037.24027811
  ---------------------------------------------------
  free energy    TOTEN  =        -2.37780342 eV

  energy without entropy =       -2.37815474  energy(sigma->0) =       -2.37792052


--------------------------------------------------------------------------------------------------------




----------------------------------------- Iteration    1(   8)  ---------------------------------------


    POTLOK:  cpu time    0.01: real time    0.01
    SETDIJ:  cpu time    0.01: real time    0.01
     EDDAV:  cpu time    0.40: real time    0.40
       DOS:  cpu time    0.00: real time    0.01
    CHARGE:  cpu time    0.03: real time    0.03
    MIXING:  cpu time    0.00: real time    0.00
    --------------------------------------------
      LOOP:  cpu time    0.46: real time    0.46

 eigenvalue-minimisations  :  1131
 total energy-change (2. order) : 0.4754261E-02  (-0.1112860E-03)
 number of electron      11.0000063 magnetization 
 augmentation part        5.2096882 magnetization 

 Broyden mixing:
  rms(total) = 0.13780E-01    rms(broyden)= 0.13780E-01
  rms(prec ) = 0.14635E-01
  weight for this iteration     100.00

 eigenvalues of (default mixing * dielectric matrix)
  average eigenvalue GAMMA=   1.4894
  2.5297  1.1591  0.7794

 Free energy of the ion-electron system (eV)
  ---------------------------------------------------
  alpha Z        PSCENC =        59.87157560
  Ewald energy   TEWEN  =     -1038.93065647
  -Hartree energ DENC   =      -161.01136920
  -exchange      EXHF   =         0.00000000
  -V(xc)+E(xc)   XCENC  =       -10.32580860
  PAW double counting   =      1218.55246538    -1176.58826829
  entropy T*S    EENTRO =         0.00034754
  eigenvalues    EBANDS =        68.81838677
  atomic energy  EATOM  =      1037.24027811
  ---------------------------------------------------
  free energy    TOTEN  =        -2.37304916 eV

  energy without entropy =       -2.37339669  energy(sigma->0) =       -2.37316500


--------------------------------------------------------------------------------------------------------




----------------------------------------- Iteration    1(   9)  ---------------------------------------


    POTLOK:  cpu time    0.01: real time    0.02
    SETDIJ:  cpu time    0.01: real time    0.01
     EDDAV:  cpu time    0.25: real time    0.25
       DOS:  cpu time    0.00: real time    0.01
    --------------------------------------------
      LOOP:  cpu time    0.28: real time    0.29

 eigenvalue-minimisations  :   578
 total energy-change (2. order) :-0.4797735E-05  (-0.4883750E-06)
 number of electron      11.0000063 magnetization 
 augmentation part        5.2096882 magnetization 

 Free energy of the ion-electron system (eV)
  ---------------------------------------------------
  alpha Z        PSCENC =        59.87157560
  Ewald energy   TEWEN  =     -1038.93065647
  -Hartree energ DENC   =      -161.08263546
  -exchange      EXHF   =         0.00000000
  -V(xc)+E(xc)   XCENC  =       -10.32335761
  PAW double counting   =      1216.37276901    -1174.34235342
  entropy T*S    EENTRO =         0.00034933
  eigenvalues    EBANDS =        68.82097696
  atomic energy  EATOM  =      1037.24027811
  ---------------------------------------------------
  free energy    TOTEN  =        -2.37305395 eV

  energy without entropy =       -2.37340328  energy(sigma->0) =       -2.37317040


--------------------------------------------------------------------------------------------------------




 average (electrostatic) potential at core
  the test charge radii are     1.1249
  (the norm of the test charge is              1.0000)
       1 -68.4595
 
 
 
 E-fermi :  11.2691     XC(G=0): -13.3361     alpha+bet :-16.1568


 k-point     1 :       0.0625    0.0625    0.0625
  band No.  band energies     occupation 
      1       2.1713      2.00000
      2       5.6338      2.00000
      3       5.7208      2.00000
      4       5.7208      2.00000
      5       7.0815      2.00000
      6       7.0815      2.00000
      7      27.6452      0.00000
      8      31.1848      0.00000
      9      32.3387      0.00000

 k-point     2 :       0.1875    0.0625    0.0625
  band No.  band energies     occupation 
      1       2.8722      2.00000
      2       5.4361      2.00000
      3       5.9136      2.00000
      4       5.9448      2.00000
      5       6.8892      2.00000
      6       7.1945      2.00000
      7      27.5619      0.00000
      8      28.7289      0.00000
      9      31.7674      0.00000

 k-point     3 :       0.3125    0.0625    0.0625
  band No.  band energies     occupation 
      1       3.7898      2.00000
      2       5.7834      2.00000
      3       5.9837      2.00000
      4       6.0558      2.00000
      5       7.1179      2.00000
      6       7.7546      2.00000
      7      23.0994      0.00000
      8      28.0798      0.00000
      9      31.5327      0.00000

 k-point     4 :       0.4375    0.0625    0.0625
  band No.  band energies     occupation 
      1       3.7213      2.00000
      2       5.6697      2.00000
      3       5.7714      2.00000
      4       7.4883      2.00000
      5       7.8161      2.00000
      6       9.3487      2.00000
      7      18.2655      0.00000
      8      27.1321      0.00000
      9      30.2936      0.00000

 k-point     5 :      -0.4375    0.0625    0.0625
  band No.  band energies     occupation 
      1       3.6349      2.00000
      2       5.5708      2.00000
      3       5.7147      2.00000
      4       7.7544      2.00000
      5       8.1943      2.00000
      6      10.7404      2.00119
      7      16.1262      0.00000
      8      26.8413      0.00000
      9      30.4125      0.00000

 k-point     6 :      -0.3125    0.0625    0.0625
  band No.  band energies     occupation 
      1       3.7760      2.00000
      2       5.7176      2.00000
      3       5.8704      2.00000
      4       6.9035      2.00000
      5       7.9281      2.00000
      6       8.4611      2.00000
      7      19.7834      0.00000
      8      27.5274      0.00000
      9      30.7965      0.00000

 k-point     7 :      -0.1875    0.0625    0.0625
  band No.  band energies     occupation 
      1       3.5925      2.00000
      2       5.5055      2.00000
      3       5.9907      2.00000
      4       6.0314      2.00000
      5       7.0886      2.00000
      6       7.3780      2.00000
      7      24.7628      0.00000
      8      28.5577      0.00000
      9      31.6082      0.00000

 k-point     8 :      -0.0625    0.0625    0.0625
  band No.  band energies     occupation 
      1       2.5372      2.00000
      2       5.4787      2.00000
      3       5.8605      2.00000
      4       5.8644      2.00000
      5       6.9163      2.00000
      6       7.1658      2.00000
      7      27.8681      0.00000
      8      29.9204      0.00000
      9      31.8387      0.00000

 k-point     9 :       0.1875    0.1875    0.0625
  band No.  band energies     occupation 
      1       3.2011      2.00000
      2       5.1777      2.00000
      3       6.1197      2.00000
      4       6.1444      2.00000
      5       6.7212      2.00000
      6       7.3239      2.00000
      7      27.9633      0.00000
      8      28.9490      0.00000
      9      30.5743      0.00000

 k-point    10 :       0.3125    0.1875    0.0625
  band No.  band energies     occupation 
      1       4.1164      2.00000
      2       4.9415      2.00000
      3       5.9482      2.00000
      4       6.4902      2.00000
      5       7.1239      2.00000
      6       7.8823      2.00000
      7      25.2359      0.00000
      8      27.2845      0.00000
      9      29.9712      0.00000

 k-point    11 :       0.4375    0.1875    0.0625
  band No.  band energies     occupation 
      1       4.1754      2.00000
      2       5.4329      2.00000
      3       5.8610      2.00000
      4       6.3763      2.00000
      5       7.9239      2.00000
      6       9.8299      2.00000
      7      20.1815      0.00000
      8      26.6491      0.00000
      9      28.0234      0.00000

 k-point    12 :      -0.4375    0.1875    0.0625
  band No.  band energies     occupation 
      1       4.0774      2.00000
      2       5.2486      2.00000
      3       6.1475      2.00000
      4       6.6310      2.00000
      5       8.1372      2.00000
      6      12.5654      0.00000
      7      16.2344      0.00000
      8      26.0394      0.00000
      9      27.4445      0.00000

 k-point    13 :      -0.3125    0.1875    0.0625
  band No.  band energies     occupation 
      1       4.2115      2.00000
      2       5.3731      2.00000
      3       6.1153      2.00000
      4       6.4114      2.00000
      5       7.7284      2.00000
      6      10.9148      2.03110
      7      18.6783      0.00000
      8      25.5076      0.00000
      9      28.3723      0.00000

 k-point    14 :      -0.1875    0.1875    0.0625
  band No.  band energies     occupation 
      1       4.3890      2.00000
      2       5.1818      2.00000
      3       5.7789      2.00000
      4       6.4512      2.00000
      5       6.9298      2.00000
      6       8.6620      2.00000
      7      23.5807      0.00000
      8      25.8106      0.00000
      9      30.2700      0.00000

 k-point    15 :      -0.0625    0.1875    0.0625
  band No.  band energies     occupation 
      1       3.4719      2.00000
      2       5.2329      2.00000
      3       6.0380      2.00000
      4       6.1403      2.00000
      5       6.8054      2.00000
      6       7.4452      2.00000
      7      26.5231      0.00000
      8      28.1021      0.00000
      9      31.2435      0.00000

 k-point    16 :       0.3125    0.3125    0.0625
  band No.  band energies     occupation 
      1       4.1665      2.00000
      2       4.4247      2.00000
      3       6.7010      2.00000
      4       7.0181      2.00000
      5       7.7769      2.00000
      6       7.8395      2.00000
      7      25.6192      0.00000
      8      26.8143      0.00000
      9      27.3219      0.00000

 k-point    17 :       0.4375    0.3125    0.0625
  band No.  band energies     occupation 
      1       4.1212      2.00000
      2       4.3199      2.00000
      3       6.5837      2.00000
      4       7.4095      2.00000
      5       7.9879      2.00000
      6      10.2055      2.00000
      7      22.6110      0.00000
      8      24.6481      0.00000
      9      24.8734      0.00000

 k-point    18 :      -0.4375    0.3125    0.0625
  band No.  band energies     occupation 
      1       4.1717      2.00000
      2       4.7308      2.00000
      3       6.2128      2.00000
      4       7.0667      2.00000
      5       8.2094      2.00000
      6      13.7386      0.00000
      7      18.0075      0.00000
      8      22.6479      0.00000
      9      25.0584      0.00000

 k-point    19 :      -0.3125    0.3125    0.0625
  band No.  band energies     occupation 
      1       4.5713      2.00000
      2       5.1624      2.00000
      3       5.6837      2.00000
      4       6.8291      2.00000
      5       7.7632      2.00000
      6      13.9550      0.00000
      7      18.2807      0.00000
      8      21.1759      0.00000
      9      26.7457      0.00000

 k-point    20 :      -0.1875    0.3125    0.0625
  band No.  band energies     occupation 
      1       4.7451      2.00000
      2       5.2478      2.00000
      3       5.5636      2.00000
      4       6.6350      2.00000
      5       7.2945      2.00000
      6      10.9416      2.04268
      7      20.7906      0.00000
      8      23.1646      0.00000
      9      28.4984      0.00000

 k-point    21 :      -0.0625    0.3125    0.0625
  band No.  band energies     occupation 
      1       4.0064      2.00000
      2       5.7246      2.00000
      3       5.9587      2.00000
      4       6.1420      2.00000
      5       7.4756      2.00000
      6       8.5208      2.00000
      7      21.5745      0.00000
      8      27.4449      0.00000
      9      29.9947      0.00000

 k-point    22 :       0.4375    0.4375    0.0625
  band No.  band energies     occupation 
      1       3.6715      2.00000
      2       3.8371      2.00000
      3       7.8837      2.00000
      4       7.9056      2.00000
      5       8.2509      2.00000
      6      11.1399      1.87911
      7      21.9560      0.00000
      8      22.9938      0.00000
      9      23.8146      0.00000

 k-point    23 :      -0.4375    0.4375    0.0625
  band No.  band energies     occupation 
      1       3.7002      2.00000
      2       3.9250      2.00000
      3       7.4741      2.00000
      4       7.8605      2.00000
      5       8.4061      2.00000
      6      13.7114      0.00000
      7      19.8986      0.00000
      8      21.0751      0.00000
      9      22.9655      0.00000

 k-point    24 :      -0.3125    0.4375    0.0625
  band No.  band energies     occupation 
      1       4.0875      2.00000
      2       4.6009      2.00000
      3       6.4030      2.00000
      4       7.2994      2.00000
      5       8.1691      2.00000
      6      15.7871      0.00000
      7      17.4622      0.00000
      8      20.2664      0.00000
      9      24.6410      0.00000

 k-point    25 :      -0.1875    0.4375    0.0625
  band No.  band energies     occupation 
      1       4.3907      2.00000
      2       5.0720      2.00000
      3       6.1389      2.00000
      4       6.5031      2.00000
      5       7.9901      2.00000
      6      13.7934      0.00000
      7      16.4904      0.00000
      8      23.7407      0.00000
      9      26.9009      0.00000

 k-point    26 :      -0.0625    0.4375    0.0625
  band No.  band energies     occupation 
      1       3.8309      2.00000
      2       5.4861      2.00000
      3       5.8860      2.00000
      4       7.1209      2.00000
      5       8.0781      2.00000
      6      10.8409      2.00987
      7      17.0421      0.00000
      8      26.8198      0.00000
      9      29.0446      0.00000

 k-point    27 :      -0.4375   -0.4375    0.0625
  band No.  band energies     occupation 
      1       3.4998      2.00000
      2       3.7057      2.00000
      3       8.0667      2.00000
      4       8.2170      2.00000
      5       8.4240      2.00000
      6      12.7219      0.00000
      7      19.8965      0.00000
      8      22.3281      0.00000
      9      23.1184      0.00000

 k-point    28 :      -0.3125   -0.4375    0.0625
  band No.  band energies     occupation 
      1       3.8656      2.00000
      2       4.0556      2.00000
      3       7.1015      2.00000
      4       7.7678      2.00000
      5       8.2306      2.00000
      6      12.0525      0.00000
      7      21.4881      0.00000
      8      22.2024      0.00000
      9      23.5623      0.00000

 k-point    29 :      -0.1875   -0.4375    0.0625
  band No.  band energies     occupation 
      1       4.2313      2.00000
      2       5.0240      2.00000
      3       5.9809      2.00000
      4       6.7181      2.00000
      5       8.1576      2.00000
      6      11.6313     -0.02804
      7      18.9579      0.00000
      8      25.3121      0.00000
      9      25.9027      0.00000

 k-point    30 :      -0.3125   -0.3125    0.0625
  band No.  band energies     occupation 
      1       3.9512      2.00000
      2       4.0878      2.00000
      3       7.3610      2.00000
      4       7.5029      2.00000
      5       8.0196      2.00000
      6       9.3036      2.00000
      7      24.1626      0.00000
      8      24.7159      0.00000
      9      25.1014      0.00000

 k-point    31 :      -0.1875   -0.3125    0.0625
  band No.  band energies     occupation 
      1       4.3272      2.00000
      2       4.6462      2.00000
      3       6.0837      2.00000
      4       6.9335      2.00000
      5       7.6344      2.00000
      6       8.7342      2.00000
      7      23.9027      0.00000
      8      26.0078      0.00000
      9      27.6166      0.00000

 k-point    32 :      -0.1875   -0.1875    0.0625
  band No.  band energies     occupation 
      1       3.9185      2.00000
      2       4.8045      2.00000
      3       6.2780      2.00000
      4       6.5423      2.00000
      5       6.9742      2.00000
      6       7.5365      2.00000
      7      27.0186      0.00000
      8      28.7443      0.00000
      9      28.8091      0.00000

 k-point    33 :       0.1875    0.1875    0.1875
  band No.  band energies     occupation 
      1       3.1405      2.00000
      2       5.5258      2.00000
      3       5.9366      2.00000
      4       5.9366      2.00000
      5       7.0761      2.00000
      6       7.0761      2.00000
      7      26.2448      0.00000
      8      28.7013      0.00000
      9      33.1461      0.00000

 k-point    34 :       0.3125    0.1875    0.1875
  band No.  band energies     occupation 
      1       3.9296      2.00000
      2       5.2504      2.00000
      3       6.0016      2.00000
      4       6.2235      2.00000
      5       6.7112      2.00000
      6       7.9163      2.00000
      7      25.0013      0.00000
      8      27.0082      0.00000
      9      31.6404      0.00000

 k-point    35 :       0.4375    0.1875    0.1875
  band No.  band energies     occupation 
      1       4.5969      2.00000
      2       5.3123      2.00000
      3       5.8105      2.00000
      4       6.3842      2.00000
      5       6.9444      2.00000
      6       9.6581      2.00000
      7      22.1050      0.00000
      8      24.4147      0.00000
      9      30.0242      0.00000

 k-point    36 :      -0.4375    0.1875    0.1875
  band No.  band energies     occupation 
      1       4.2769      2.00000
      2       5.2603      2.00000
      3       6.2420      2.00000
      4       6.4099      2.00000
      5       7.7808      2.00000
      6      12.2440      0.00000
      7      17.4223      0.00000
      8      24.4894      0.00000
      9      28.9374      0.00000

 k-point    37 :      -0.3125    0.1875    0.1875
  band No.  band energies     occupation 
      1       4.1186      2.00000
      2       5.2124      2.00000
      3       6.3003      2.00000
      4       6.3250      2.00000
      5       8.2364      2.00000
      6      12.1142      0.00000
      7      17.2714      0.00000
      8      25.5954      0.00000
      9      27.9480      0.00000

 k-point    38 :      -0.1875    0.1875    0.1875
  band No.  band energies     occupation 
      1       4.1974      2.00000
      2       5.0710      2.00000
      3       5.9446      2.00000
      4       6.5317      2.00000
      5       8.0218      2.00000
      6       9.0172      2.00000
      7      21.9375      0.00000
      8      27.3387      0.00000
      9      27.7185      0.00000

 k-point    39 :       0.3125    0.3125    0.1875
  band No.  band energies     occupation 
      1       4.0307      2.00000
      2       5.3782      2.00000
      3       5.8537      2.00000
      4       6.2292      2.00000
      5       7.7165      2.00000
      6       7.7434      2.00000
      7      23.3233      0.00000
      8      28.3028      0.00000
      9      29.6169      0.00000

 k-point    40 :       0.4375    0.3125    0.1875
  band No.  band energies     occupation 
      1       4.5643      2.00000
      2       5.0769      2.00000
      3       5.5470      2.00000
      4       6.8383      2.00000
      5       7.3998      2.00000
      6       9.7768      2.00000
      7      22.2550      0.00000
      8      24.5694      0.00000
      9      27.9371      0.00000

 k-point    41 :      -0.4375    0.3125    0.1875
  band No.  band energies     occupation 
      1       4.8437      2.00000
      2       4.9574      2.00000
      3       5.4304      2.00000
      4       6.9517      2.00000
      5       7.7330      2.00000
      6      12.5977      0.00000
      7      19.6364      0.00000
      8      22.1552      0.00000
      9      25.8749      0.00000

 k-point    42 :      -0.3125    0.3125    0.1875
  band No.  band energies     occupation 
      1       4.5444      2.00000
      2       4.8837      2.00000
      3       5.8055      2.00000
      4       6.8490      2.00000
      5       8.1121      2.00000
      6      14.7617      0.00000
      7      16.7351      0.00000
      8      23.2515      0.00000
      9      24.1776      0.00000

 k-point    43 :      -0.1875    0.3125    0.1875
  band No.  band energies     occupation 
      1       4.4359      2.00000
      2       4.7233      2.00000
      3       5.8240      2.00000
      4       7.2421      2.00000
      5       7.8188      2.00000
      6      11.3557      0.33756
      7      21.0594      0.00000
      8      23.4219      0.00000
      9      25.2342      0.00000

 k-point    44 :       0.4375    0.4375    0.1875
  band No.  band energies     occupation 
      1       4.1045      2.00000
      2       4.6582      2.00000
      3       6.3756      2.00000
      4       6.9105      2.00000
      5       8.2323      2.00000
      6      10.7347      2.00104
      7      20.6648      0.00000
      8      25.0033      0.00000
      9      26.1463      0.00000

 k-point    45 :      -0.4375    0.4375    0.1875
  band No.  band energies     occupation 
      1       4.2168      2.00000
      2       4.4495      2.00000
      3       6.2258      2.00000
      4       7.4624      2.00000
      5       8.1652      2.00000
      6      13.2891      0.00000
      7      20.1061      0.00000
      8      22.2852      0.00000
      9      22.7549      0.00000

 k-point    46 :      -0.3125    0.4375    0.1875
  band No.  band energies     occupation 
      1       4.3924      2.00000
      2       4.8989      2.00000
      3       5.6484      2.00000
      4       7.1226      2.00000
      5       8.3984      2.00000
      6      16.6885      0.00000
      7      18.1914      0.00000
      8      20.3248      0.00000
      9      21.3755      0.00000

 k-point    47 :      -0.1875    0.4375    0.1875
  band No.  band energies     occupation 
      1       4.5866      2.00000
      2       4.9090      2.00000
      3       5.5198      2.00000
      4       7.1080      2.00000
      5       8.1363      2.00000
      6      14.6017      0.00000
      7      18.7189      0.00000
      8      21.4317      0.00000
      9      23.1126      0.00000

 k-point    48 :      -0.4375   -0.4375    0.1875
  band No.  band energies     occupation 
      1       3.8113      2.00000
      2       4.1941      2.00000
      3       7.1138      2.00000
      4       7.6109      2.00000
      5       8.2643      2.00000
      6      14.5281      0.00000
      7      19.0580      0.00000
      8      20.1196      0.00000
      9      24.4455      0.00000

 k-point    49 :      -0.3125   -0.4375    0.1875
  band No.  band energies     occupation 
      1       4.0516      2.00000
      2       4.3357      2.00000
      3       6.5340      2.00000
      4       7.4708      2.00000
      5       8.4002      2.00000
      6      15.1404      0.00000
      7      19.5054      0.00000
      8      20.2066      0.00000
      9      22.1568      0.00000

 k-point    50 :      -0.3125   -0.3125    0.1875
  band No.  band energies     occupation 
      1       3.9350      2.00000
      2       4.3458      2.00000
      3       6.8300      2.00000
      4       7.3070      2.00000
      5       8.3064      2.00000
      6      12.7231      0.00000
      7      19.6484      0.00000
      8      22.3066      0.00000
      9      25.0274      0.00000

 k-point    51 :       0.3125    0.3125    0.3125
  band No.  band energies     occupation 
      1       3.7220      2.00000
      2       5.8544      2.00000
      3       5.8544      2.00000
      4       6.8330      2.00000
      5       7.5535      2.00000
      6       7.5535      2.00000
      7      21.3440      0.00000
      8      27.8971      0.00000
      9      32.8136      0.00000

 k-point    52 :       0.4375    0.3125    0.3125
  band No.  band energies     occupation 
      1       4.0688      2.00000
      2       5.6021      2.00000
      3       6.0277      2.00000
      4       6.4715      2.00000
      5       7.3979      2.00000
      6       9.5362      2.00000
      7      20.0289      0.00000
      8      26.4424      0.00000
      9      29.5708      0.00000

 k-point    53 :      -0.4375    0.3125    0.3125
  band No.  band energies     occupation 
      1       4.6796      2.00000
      2       5.2665      2.00000
      3       5.7437      2.00000
      4       6.5865      2.00000
      5       7.4394      2.00000
      6      12.3024      0.00000
      7      19.4748      0.00000
      8      21.9986      0.00000
      9      29.3247      0.00000

 k-point    54 :      -0.3125    0.3125    0.3125
  band No.  band energies     occupation 
      1       4.2567      2.00000
      2       4.9670      2.00000
      3       6.0859      2.00000
      4       7.0297      2.00000
      5       7.9147      2.00000
      6      15.4956      0.00000
      7      17.0062      0.00000
      8      20.5715      0.00000
      9      26.7801      0.00000

 k-point    55 :       0.4375    0.4375    0.3125
  band No.  band energies     occupation 
      1       3.9294      2.00000
      2       5.4881      2.00000
      3       6.0347      2.00000
      4       6.5614      2.00000
      5       8.1719      2.00000
      6      10.1330      2.00000
      7      18.4145      0.00000
      8      27.1118      0.00000
      9      29.1615      0.00000

 k-point    56 :      -0.4375    0.4375    0.3125
  band No.  band energies     occupation 
      1       4.4087      2.00000
      2       5.0697      2.00000
      3       5.9980      2.00000
      4       6.5660      2.00000
      5       8.0027      2.00000
      6      12.6971      0.00000
      7      17.5428      0.00000
      8      24.7237      0.00000
      9      26.0019      0.00000

 k-point    57 :      -0.3125    0.4375    0.3125
  band No.  band energies     occupation 
      1       4.4787      2.00000
      2       4.9688      2.00000
      3       5.6670      2.00000
      4       7.0344      2.00000
      5       8.1351      2.00000
      6      15.9288      0.00000
      7      17.3097      0.00000
      8      20.6815      0.00000
      9      23.9011      0.00000

 k-point    58 :      -0.4375   -0.4375    0.3125
  band No.  band energies     occupation 
      1       4.2422      2.00000
      2       5.0178      2.00000
      3       6.1491      2.00000
      4       6.6951      2.00000
      5       8.1202      2.00000
      6      14.2583      0.00000
      7      16.4936      0.00000
      8      23.0510      0.00000
      9      27.1615      0.00000

 k-point    59 :       0.4375    0.4375    0.4375
  band No.  band energies     occupation 
      1       3.5767      2.00000
      2       5.6636      2.00000
      3       5.6636      2.00000
      4       8.1023      2.00000
      5       8.1023      2.00000
      6       9.6004      2.00000
      7      16.9231      0.00000
      8      26.9375      0.00000
      9      31.2512      0.00000

 k-point    60 :      -0.4375    0.4375    0.4375
  band No.  band energies     occupation 
      1       3.8812      2.00000
      2       5.4124      2.00000
      3       5.9189      2.00000
      4       7.1130      2.00000
      5       8.0740      2.00000
      6      11.8046     -0.00101
      7      16.1859      0.00000
      8      26.4131      0.00000
      9      28.9946      0.00000


--------------------------------------------------------------------------------------------------------


 soft charge-density along one line, spin component           1
         0         1         2         3         4         5         6         7         8         9
x     5.7903    0.0000    0.7862    0.0000   -0.2709    0.0000    0.0051    0.0000    0.0114    0.0000
x     0.0003    0.0000    0.0000    0.0000
y     5.7903    0.0000    0.7862    0.0000   -0.2709    0.0000    0.0051    0.0000    0.0114    0.0000
y     0.0003    0.0000    0.0000    0.0000
z     5.7903    0.0000    0.7862    0.0000   -0.2709    0.0000    0.0051    0.0000    0.0114    0.0000
z     0.0003    0.0000    0.0000    0.0000
 total charge-density along one line
x    11.0000    0.0000    4.2197    0.0000    0.5462    0.0000   -0.0042    0.0000    0.0120    0.0000
x    -0.0002    0.0000    0.0002    0.0000   -0.0001    0.0000    0.0001    0.0000    0.0000    0.0000
x     0.0000    0.0000    0.0000    0.0000    0.0000    0.0000
y    11.0000    0.0000    4.2197    0.0000    0.5462    0.0000   -0.0042    0.0000    0.0120    0.0000
y    -0.0002    0.0000    0.0002    0.0000   -0.0001    0.0000    0.0001    0.0000    0.0000    0.0000
y     0.0000    0.0000    0.0000    0.0000    0.0000    0.0000
z    11.0000    0.0000    4.2197    0.0000    0.5462    0.0000   -0.0042    0.0000    0.0120    0.0000
z    -0.0002    0.0000    0.0002    0.0000   -0.0001    0.0000    0.0001    0.0000    0.0000    0.0000
z     0.0000    0.0000    0.0000    0.0000    0.0000    0.0000
 
 pseudopotential strength for first ion, spin component:           1
 -2.801   0.000   0.000  -0.007   0.000  -3.084   0.000   0.000
  0.000  -2.797   0.000   0.000  -0.007   0.000  -3.079   0.000
  0.000   0.000  -2.806   0.000   0.000   0.000   0.000  -3.088
 -0.007   0.000   0.000  -2.797   0.000  -0.006   0.000   0.000
  0.000  -0.007   0.000   0.000  -2.801   0.000  -0.006   0.000
 -3.084   0.000   0.000  -0.006   0.000  -3.330   0.000   0.000
  0.000  -3.079   0.000   0.000  -0.006   0.000  -3.326   0.000
  0.000   0.000  -3.088   0.000   0.000   0.000   0.000  -3.334
 -0.006   0.000   0.000  -3.079   0.000  -0.006   0.000   0.000
  0.000  -0.006   0.000   0.000  -3.084   0.000  -0.006   0.000
  0.000   0.000   0.000   0.000   0.000   0.000   0.000   0.000
  0.000   0.000   0.000   0.000   0.000   0.000   0.000   0.000
  0.000   0.000   0.000   0.000   0.000   0.000   0.000   0.000
  0.000   0.000   0.000   0.000   0.000   0.000   0.000   0.000
  0.000   0.000   0.000   0.000   0.000   0.000   0.000   0.000
  0.000   0.000   0.000   0.000   0.000   0.000   0.000   0.000
  0.000   0.000   0.000   0.000   0.000   0.000   0.000   0.000
  0.000   0.000   0.000   0.000   0.000   0.000   0.000   0.000
 total augmentation occupancy for first ion, spin component:           1
  4.389   0.000   0.000   0.034   0.000  -2.493   0.000   0.000  -0.121   0.000   0.000   0.000   0.000   0.000   0.000   0.000
  0.000   4.365   0.000   0.000   0.034   0.000  -2.407   0.000   0.000  -0.121   0.000   0.000   0.000   0.000   0.000   0.000
  0.000   0.000   4.413   0.000   0.000   0.000   0.000  -2.578   0.000   0.000   0.000   0.000   0.000   0.000   0.000   0.000
  0.034   0.000   0.000   4.365   0.000  -0.121   0.000   0.000  -2.407   0.000   0.000   0.000   0.000   0.000   0.000   0.000
  0.000   0.034   0.000   0.000   4.389   0.000  -0.121   0.000   0.000  -2.493   0.000   0.000   0.000   0.000   0.000   0.000
 -2.493   0.000   0.000  -0.121   0.000   2.546   0.000   0.000   0.196   0.000   0.000   0.000   0.000   0.000   0.000   0.000
  0.000  -2.407   0.000   0.000  -0.121   0.000   2.407   0.000   0.000   0.196   0.000   0.000   0.000   0.000   0.000   0.000
  0.000   0.000  -2.578   0.000   0.000   0.000   0.000   2.684   0.000   0.000   0.000   0.000   0.000   0.000   0.000   0.000
 -0.121   0.000   0.000  -2.407   0.000   0.196   0.000   0.000   2.407   0.000   0.000   0.000   0.000   0.000   0.000   0.000
  0.000  -0.121   0.000   0.000  -2.493   0.000   0.196   0.000   0.000   2.546   0.000   0.000   0.000   0.000   0.000   0.000
  0.000   0.000   0.000   0.000   0.000   0.000   0.000   0.000   0.000   0.000   2.788  -0.586   0.000   0.000   0.000   0.000
  0.000   0.000   0.000   0.000   0.000   0.000   0.000   0.000   0.000   0.000  -0.586   0.149   0.000   0.000   0.000   0.000
  0.000   0.000   0.000   0.000   0.000   0.000   0.000   0.000   0.000   0.000   0.000   0.000   0.258   0.000   0.000  -0.016
  0.000   0.000   0.000   0.000   0.000   0.000   0.000   0.000   0.000   0.000   0.000   0.000   0.000   0.258   0.000   0.000
  0.000   0.000   0.000   0.000   0.000   0.000   0.000   0.000   0.000   0.000   0.000   0.000   0.000   0.000   0.258   0.000
  0.000   0.000   0.000   0.000   0.000   0.000   0.000   0.000   0.000   0.000   0.000   0.000  -0.016   0.000   0.000   0.001
  0.000   0.000   0.000   0.000   0.000   0.000   0.000   0.000   0.000   0.000   0.000   0.000   0.000  -0.016   0.000   0.000
  0.000   0.000   0.000   0.000   0.000   0.000   0.000   0.000   0.000   0.000   0.000   0.000   0.000   0.000  -0.016   0.000


------------------------ aborting loop because EDIFF is reached ----------------------------------------


    CHARGE:  cpu time    0.03: real time    0.03
    FORLOC:  cpu time    0.00: real time    0.00
    FORNL :  cpu time    0.07: real time    0.07
    STRESS:  cpu time    0.27: real time    0.27
    FORCOR:  cpu time    0.02: real time    0.02
    FORHAR:  cpu time    0.00: real time    0.02
    MIXING:  cpu time    0.00: real time    0.00
    OFIELD:  cpu time    0.00: real time    0.00

  FORCE on cell =-STRESS in cart. coord.  units (eV):
  Direction    XX          YY          ZZ          XY          YZ          ZX
  --------------------------------------------------------------------------------------
  Alpha Z    59.87158    59.87158    59.87158
  Ewald    -346.31023  -346.31023  -346.31023     0.00000     0.00000     0.00000
  Hartree    53.69510    53.69510    53.69510     0.00000     0.00000     0.00000
  E(xc)     -58.74130   -58.74130   -58.74130     0.00000     0.00000     0.00000
  Local      68.37653    68.37619    68.37610     0.00030     0.00012     0.00021
  n-local    -3.64502    -3.24255    -1.72603    -0.57653    -0.42456     1.87550
  augment    91.76769    91.76793    91.76799    -0.00021    -0.00008    -0.00015
  Kinetic   137.97413   137.70764   137.05324     0.07529    -0.17665    -0.71939
  Fock        0.00000     0.00000     0.00000     0.00000     0.00000     0.00000
  -------------------------------------------------------------------------------------
  Total       3.36643     3.36643     3.36643     0.00000     0.00000     0.00000
  in kB     379.65248   379.65248   379.65248     0.00000     0.00000     0.00000
  external pressure =      379.65 kB  Pullay stress =        0.00 kB


 VOLUME and BASIS-vectors are now :
 -----------------------------------------------------------------------------
  energy-cutoff  :      350.00
  volume of cell :       14.21
      direct lattice vectors                 reciprocal lattice vectors
     2.718542731  0.000000000  0.000000000     0.367844135 -0.212374911 -0.150171739
     1.359271365  2.354327066  0.000000000     0.000000000  0.424749821 -0.150171739
     1.359271365  0.784775689  2.219680845     0.000000000  0.000000000  0.450515218

  length of vectors
     2.718542731  2.718542731  2.718542731     0.450515218  0.450515218  0.450515218


 FORCES acting on ions
    electron-ion (+dipol)            ewald-force                    non-local-force                 convergence-correction
 -----------------------------------------------------------------------------------------------
   -.933E-13 -.227E-13 -.264E-14   -.138E-14 -.503E-15 -.237E-14   0.331E-23 -.993E-23 0.000E+00   -.375E-13 -.506E-13 -.448E-14
 -----------------------------------------------------------------------------------------------
   -.933E-13 -.227E-13 -.264E-14   -.138E-14 -.503E-15 -.237E-14   0.331E-23 -.993E-23 0.000E+00   -.375E-13 -.506E-13 -.448E-14
 
 
 POSITION                                       TOTAL-FORCE (eV/Angst)
 -----------------------------------------------------------------------------------
      0.00000      0.00000      0.00000         0.000000      0.000000      0.000000
 -----------------------------------------------------------------------------------
    total drift:                                0.000000      0.000000      0.000000


--------------------------------------------------------------------------------------------------------



  FREE ENERGIE OF THE ION-ELECTRON SYSTEM (eV)
  ---------------------------------------------------
  free  energy   TOTEN  =        -2.37305395 eV

  energy  without entropy=       -2.37340328  energy(sigma->0) =       -2.37317040
 


--------------------------------------------------------------------------------------------------------


    POTLOK:  cpu time    0.03: real time    0.03


--------------------------------------------------------------------------------------------------------


 stress matrix after NEB project (eV)
      3.36643      0.00000      0.00000
      0.00000      3.36643      0.00000
      0.00000      0.00000      3.36643
  FORCES: max atom, RMS     0.000000    0.000000
  FORCE total and by dimension    0.000000    0.000000
  Stress total and by dimension    5.830822    3.366427


--------------------------------------------------------------------------------------------------------


  
 reached required accuracy - stopping structural energy minimisation
 writing wavefunctions
     LOOP+:  cpu time    4.18: real time    4.59
    4ORBIT:  cpu time    0.00: real time    0.00

 total amount of memory used by VASP on root node    34712. kBytes
========================================================================

   base      :      30000. kBytes
   nonl-proj :       1887. kBytes
   grid      :        771. kBytes
   one-center:         15. kBytes
   wavefun   :       2039. kBytes
 
  
  
 General timing and accounting informations for this job:
 ========================================================
  
                  Total CPU time used (sec):        4.691
                            User time (sec):        4.337
                          System time (sec):        0.354
                         Elapsed time (sec):        5.370
  
                   Maximum memory used (kb):           0.
                   Average memory used (kb):           0.
  
                          Minor page faults:         5069
                          Major page faults:            0
                 Voluntary context switches:        13422
