<?xml version="1.0" encoding="ISO-8859-1"?>
<modeling>
 <generator>
  <i name="program" type="string">vasp </i>
  <i name="version" type="string">5.3.5  </i>
  <i name="subversion" type="string">31Mar14 (build Jan 09 2015 16:57:47) complex                          serial </i>
  <i name="platform" type="string">LinuxIFC </i>
  <i name="date" type="string">2015 03 24 </i>
  <i name="time" type="string">14:26:00 </i>
 </generator>
 <incar>
  <i type="string" name="PREC">normal</i>
  <i type="int" name="IBRION">     2</i>
  <i type="int" name="NSW">    30</i>
  <i type="int" name="ISIF">     2</i>
  <i name="ENCUT">    350.00000000</i>
 </incar>
 <kpoints>
  <generation param="Monkhorst-Pack">
   <v type="int" name="divisions">       8        8        8 </v>
   <v name="usershift">      0.00000000       0.00000000       0.00000000 </v>
   <v name="genvec1">      0.12500000       0.00000000       0.00000000 </v>
   <v name="genvec2">      0.00000000       0.12500000       0.00000000 </v>
   <v name="genvec3">      0.00000000       0.00000000       0.12500000 </v>
   <v name="shift">      0.50000000       0.50000000       0.50000000 </v>
  </generation>
  <varray name="kpointlist" >
   <v>       0.06250000       0.06250000       0.06250000 </v>
   <v>       0.18750000       0.06250000       0.06250000 </v>
   <v>       0.31250000       0.06250000       0.06250000 </v>
   <v>       0.43750000       0.06250000       0.06250000 </v>
   <v>      -0.43750000       0.06250000       0.06250000 </v>
   <v>      -0.31250000       0.06250000       0.06250000 </v>
   <v>      -0.18750000       0.06250000       0.06250000 </v>
   <v>      -0.06250000       0.06250000       0.06250000 </v>
   <v>       0.18750000       0.18750000       0.06250000 </v>
   <v>       0.31250000       0.18750000       0.06250000 </v>
   <v>       0.43750000       0.18750000       0.06250000 </v>
   <v>      -0.43750000       0.18750000       0.06250000 </v>
   <v>      -0.31250000       0.18750000       0.06250000 </v>
   <v>      -0.18750000       0.18750000       0.06250000 </v>
   <v>      -0.06250000       0.18750000       0.06250000 </v>
   <v>       0.31250000       0.31250000       0.06250000 </v>
   <v>       0.43750000       0.31250000       0.06250000 </v>
   <v>      -0.43750000       0.31250000       0.06250000 </v>
   <v>      -0.31250000       0.31250000       0.06250000 </v>
   <v>      -0.18750000       0.31250000       0.06250000 </v>
   <v>      -0.06250000       0.31250000       0.06250000 </v>
   <v>       0.43750000       0.43750000       0.06250000 </v>
   <v>      -0.43750000       0.43750000       0.06250000 </v>
   <v>      -0.31250000       0.43750000       0.06250000 </v>
   <v>      -0.18750000       0.43750000       0.06250000 </v>
   <v>      -0.06250000       0.43750000       0.06250000 </v>
   <v>      -0.43750000      -0.43750000       0.06250000 </v>
   <v>      -0.31250000      -0.43750000       0.06250000 </v>
   <v>      -0.18750000      -0.43750000       0.06250000 </v>
   <v>      -0.31250000      -0.31250000       0.06250000 </v>
   <v>      -0.18750000      -0.31250000       0.06250000 </v>
   <v>      -0.18750000      -0.18750000       0.06250000 </v>
   <v>       0.18750000       0.18750000       0.18750000 </v>
   <v>       0.31250000       0.18750000       0.18750000 </v>
   <v>       0.43750000       0.18750000       0.18750000 </v>
   <v>      -0.43750000       0.18750000       0.18750000 </v>
   <v>      -0.31250000       0.18750000       0.18750000 </v>
   <v>      -0.18750000       0.18750000       0.18750000 </v>
   <v>       0.31250000       0.31250000       0.18750000 </v>
   <v>       0.43750000       0.31250000       0.18750000 </v>
   <v>      -0.43750000       0.31250000       0.18750000 </v>
   <v>      -0.31250000       0.31250000       0.18750000 </v>
   <v>      -0.18750000       0.31250000       0.18750000 </v>
   <v>       0.43750000       0.43750000       0.18750000 </v>
   <v>      -0.43750000       0.43750000       0.18750000 </v>
   <v>      -0.31250000       0.43750000       0.18750000 </v>
   <v>      -0.18750000       0.43750000       0.18750000 </v>
   <v>      -0.43750000      -0.43750000       0.18750000 </v>
   <v>      -0.31250000      -0.43750000       0.18750000 </v>
   <v>      -0.31250000      -0.31250000       0.18750000 </v>
   <v>       0.31250000       0.31250000       0.31250000 </v>
   <v>       0.43750000       0.31250000       0.31250000 </v>
   <v>      -0.43750000       0.31250000       0.31250000 </v>
   <v>      -0.31250000       0.31250000       0.31250000 </v>
   <v>       0.43750000       0.43750000       0.31250000 </v>
   <v>      -0.43750000       0.43750000       0.31250000 </v>
   <v>      -0.31250000       0.43750000       0.31250000 </v>
   <v>      -0.43750000      -0.43750000       0.31250000 </v>
   <v>       0.43750000       0.43750000       0.43750000 </v>
   <v>      -0.43750000       0.43750000       0.43750000 </v>
  </varray>
  <varray name="weights" >
   <v>       0.00390625 </v>
   <v>       0.01171875 </v>
   <v>       0.01171875 </v>
   <v>       0.01171875 </v>
   <v>       0.01171875 </v>
   <v>       0.01171875 </v>
   <v>       0.01171875 </v>
   <v>       0.01171875 </v>
   <v>       0.01171875 </v>
   <v>       0.02343750 </v>
   <v>       0.02343750 </v>
   <v>       0.02343750 </v>
   <v>       0.02343750 </v>
   <v>       0.02343750 </v>
   <v>       0.02343750 </v>
   <v>       0.01171875 </v>
   <v>       0.02343750 </v>
   <v>       0.02343750 </v>
   <v>       0.02343750 </v>
   <v>       0.02343750 </v>
   <v>       0.02343750 </v>
   <v>       0.01171875 </v>
   <v>       0.02343750 </v>
   <v>       0.02343750 </v>
   <v>       0.02343750 </v>
   <v>       0.02343750 </v>
   <v>       0.01171875 </v>
   <v>       0.02343750 </v>
   <v>       0.02343750 </v>
   <v>       0.01171875 </v>
   <v>       0.02343750 </v>
   <v>       0.01171875 </v>
   <v>       0.00390625 </v>
   <v>       0.01171875 </v>
   <v>       0.01171875 </v>
   <v>       0.01171875 </v>
   <v>       0.01171875 </v>
   <v>       0.01171875 </v>
   <v>       0.01171875 </v>
   <v>       0.02343750 </v>
   <v>       0.02343750 </v>
   <v>       0.02343750 </v>
   <v>       0.02343750 </v>
   <v>       0.01171875 </v>
   <v>       0.02343750 </v>
   <v>       0.02343750 </v>
   <v>       0.02343750 </v>
   <v>       0.01171875 </v>
   <v>       0.02343750 </v>
   <v>       0.01171875 </v>
   <v>       0.00390625 </v>
   <v>       0.01171875 </v>
   <v>       0.01171875 </v>
   <v>       0.01171875 </v>
   <v>       0.01171875 </v>
   <v>       0.02343750 </v>
   <v>       0.02343750 </v>
   <v>       0.01171875 </v>
   <v>       0.00390625 </v>
   <v>       0.01171875 </v>
  </varray>
 </kpoints>
 <parameters>
  <separator name="general" >
   <i type="string" name="SYSTEM">unknown system</i>
   <i type="logical" name="LCOMPAT"> F  </i>
  </separator>
  <separator name="electronic" >
   <i type="string" name="PREC">normal</i>
   <i name="ENMAX">    350.00000000</i>
   <i name="ENAUG">    412.49600000</i>
   <i name="EDIFF">      0.00010000</i>
   <i type="int" name="IALGO">    38</i>
   <i type="int" name="IWAVPR">    11</i>
   <i type="int" name="NBANDS">     9</i>
   <i name="NELECT">     11.00000000</i>
   <i type="int" name="TURBO">     0</i>
   <i type="int" name="IRESTART">     0</i>
   <i type="int" name="NREBOOT">     0</i>
   <i type="int" name="NMIN">     0</i>
   <i name="EREF">      0.00000000</i>
   <separator name="electronic smearing" >
    <i type="int" name="ISMEAR">     1</i>
    <i name="SIGMA">      0.20000000</i>
    <i name="KSPACING">      0.50000000</i>
    <i type="logical" name="KGAMMA"> T  </i>
   </separator>
   <separator name="electronic projectors" >
    <i type="logical" name="LREAL"> F  </i>
    <v name="ROPT">      0.00000000</v>
    <i type="int" name="LMAXPAW">  -100</i>
    <i type="int" name="LMAXMIX">     2</i>
    <i type="logical" name="NLSPLINE"> F  </i>
   </separator>
   <separator name="electronic startup" >
    <i type="int" name="ISTART">     0</i>
    <i type="int" name="ICHARG">     2</i>
    <i type="int" name="INIWAV">     1</i>
   </separator>
   <separator name="electronic spin" >
    <i type="int" name="ISPIN">     1</i>
    <i type="logical" name="LNONCOLLINEAR"> F  </i>
    <v name="MAGMOM">      1.00000000</v>
    <i name="NUPDOWN">     -1.00000000</i>
    <i type="logical" name="LSORBIT"> F  </i>
    <v name="SAXIS">      0.00000000      0.00000000      1.00000000</v>
    <i type="logical" name="LSPIRAL"> F  </i>
    <v name="QSPIRAL">      0.00000000      0.00000000      0.00000000</v>
    <i type="logical" name="LZEROZ"> F  </i>
   </separator>
   <separator name="electronic exchange-correlation" >
    <i type="logical" name="LASPH"> F  </i>
    <i type="logical" name="LMETAGGA"> F  </i>
   </separator>
   <separator name="electronic convergence" >
    <i type="int" name="NELM">    60</i>
    <i type="int" name="NELMDL">    -5</i>
    <i type="int" name="NELMIN">     2</i>
    <i name="ENINI">    350.00000000</i>
    <separator name="electronic convergence detail" >
     <i type="logical" name="LDIAG"> T  </i>
     <i type="logical" name="LSUBROT"> F  </i>
     <i name="WEIMIN">      0.00100000</i>
     <i name="EBREAK">      0.00000278</i>
     <i name="DEPER">      0.30000000</i>
     <i type="int" name="NRMM">     4</i>
     <i name="TIME">      0.40000000</i>
    </separator>
   </separator>
   <separator name="electronic mixer" >
    <i name="AMIX">      0.40000000</i>
    <i name="BMIX">      1.00000000</i>
    <i name="AMIN">      0.10000000</i>
    <i name="AMIX_MAG">      1.60000000</i>
    <i name="BMIX_MAG">      1.00000000</i>
    <separator name="electronic mixer details" >
     <i type="int" name="IMIX">     4</i>
     <i type="int" name="MAXMIX">   -45</i>
     <i name="WC">    100.00000000</i>
     <i type="int" name="INIMIX">     1</i>
     <i type="int" name="MIXPRE">     1</i>
     <i type="int" name="MREMOVE">     5</i>
    </separator>
   </separator>
   <separator name="electronic dipolcorrection" >
    <i type="logical" name="LDIPOL"> F  </i>
    <i type="logical" name="LMONO"> F  </i>
    <i type="int" name="IDIPOL">     0</i>
    <i name="EPSILON">      1.00000000</i>
    <v name="DIPOL">   -100.00000000   -100.00000000   -100.00000000</v>
    <i name="EFIELD">      0.00000000</i>
   </separator>
  </separator>
  <separator name="grids" >
   <i type="int" name="NGX">    12</i>
   <i type="int" name="NGY">    12</i>
   <i type="int" name="NGZ">    12</i>
   <i type="int" name="NGXF">    24</i>
   <i type="int" name="NGYF">    24</i>
   <i type="int" name="NGZF">    24</i>
   <i type="logical" name="ADDGRID"> F  </i>
  </separator>
  <separator name="ionic" >
   <i type="int" name="NSW">    30</i>
   <i type="int" name="IBRION">     2</i>
   <i type="int" name="ISIF">     2</i>
   <i name="PSTRESS">      0.00000000</i>
   <i name="EDIFFG">      0.00100000</i>
   <i type="int" name="NFREE">     1</i>
   <i name="POTIM">      0.50000000</i>
   <i name="SMASS">     -3.00000000</i>
   <i name="SCALEE">      1.00000000</i>
  </separator>
  <separator name="ionic md" >
   <i name="TEBEG">      0.00010000</i>
   <i name="TEEND">      0.00010000</i>
   <i type="int" name="NBLOCK">     1</i>
   <i type="int" name="KBLOCK">    30</i>
   <i type="int" name="NPACO">   256</i>
   <i name="APACO">     16.00000000</i>
  </separator>
  <separator name="symmetry" >
   <i type="int" name="ISYM">     2</i>
   <i name="SYMPREC">      0.00001000</i>
  </separator>
  <separator name="dos" >
   <i type="logical" name="LORBIT"> F  </i>
   <v name="RWIGS">     -1.00000000</v>
   <i type="int" name="NEDOS">   301</i>
   <i name="EMIN">     10.00000000</i>
   <i name="EMAX">    -10.00000000</i>
   <i name="EFERMI">      0.00000000</i>
  </separator>
  <separator name="writing" >
   <i type="int" name="NWRITE">     2</i>
   <i type="logical" name="LWAVE"> T  </i>
   <i type="logical" name="LCHARG"> T  </i>
   <i type="logical" name="LPARD"> F  </i>
   <i type="logical" name="LVTOT"> F  </i>
   <i type="logical" name="LVHAR"> F  </i>
   <i type="logical" name="LELF"> F  </i>
   <i type="logical" name="LOPTICS"> F  </i>
   <v name="STM">      0.00000000      0.00000000      0.00000000      0.00000000      0.00000000      0.00000000      0.00000000</v>
  </separator>
  <separator name="performance" >
   <i type="int" name="NPAR">     1</i>
   <i type="int" name="NSIM">     4</i>
   <i type="int" name="NBLK">    -1</i>
   <i type="logical" name="LPLANE"> T  </i>
   <i type="logical" name="LSCALAPACK"> F  </i>
   <i type="logical" name="LSCAAWARE"> F  </i>
   <i type="logical" name="LSCALU"> F  </i>
   <i type="logical" name="LASYNC"> F  </i>
   <i type="logical" name="LORBITALREAL"> F  </i>
  </separator>
  <separator name="miscellaneous" >
   <i type="int" name="IDIOT">     3</i>
   <i type="logical" name="LMUSIC"> F  </i>
   <v name="POMASS">    107.86800000</v>
   <v name="DARWINR">      0.00000000</v>
   <v name="DARWINV">      1.00000000</v>
   <i type="logical" name="LCORR"> T  </i>
  </separator>
  <i type="logical" name="GGA_COMPAT"> T  </i>
  <i type="logical" name="LBERRY"> F  </i>
  <i type="int" name="ICORELEVEL">     0</i>
  <i type="logical" name="LDAU"> F  </i>
  <i type="int" name="I_CONSTRAINED_M">     0</i>
  <separator name="electronic exchange-correlation" >
   <i type="string" name="GGA">--</i>
   <i type="int" name="VOSKOWN">     0</i>
   <i type="logical" name="LHFCALC"> F  </i>
   <i type="string" name="PRECFOCK"></i>
   <i type="logical" name="LSYMGRAD"> F  </i>
   <i type="logical" name="LHFONE"> F  </i>
   <i type="logical" name="LRHFCALC"> F  </i>
   <i type="logical" name="LTHOMAS"> F  </i>
   <i type="logical" name="LMODELHF"> F  </i>
   <i name="ENCUT4O">     -1.00000000</i>
   <i type="int" name="EXXOEP">     0</i>
   <i type="int" name="FOURORBIT">     0</i>
   <i name="AEXX">      0.00000000</i>
   <i name="HFALPHA">      0.00000000</i>
   <i name="MCALPHA">      0.00000000</i>
   <i name="ALDAX">      1.00000000</i>
   <i name="AGGAX">      1.00000000</i>
   <i name="ALDAC">      1.00000000</i>
   <i name="AGGAC">      1.00000000</i>
   <i type="int" name="NKREDX">     1</i>
   <i type="int" name="NKREDY">     1</i>
   <i type="int" name="NKREDZ">     1</i>
   <i type="logical" name="SHIFTRED"> F  </i>
   <i type="logical" name="ODDONLY"> F  </i>
   <i type="logical" name="EVENONLY"> F  </i>
   <i type="int" name="LMAXFOCK">     0</i>
   <i type="int" name="NMAXFOCKAE">     0</i>
   <i type="logical" name="LFOCKAEDFT"> F  </i>
   <i name="HFSCREEN">      0.00000000</i>
   <i name="HFSCREENC">      0.00000000</i>
   <i type="int" name="NBANDSGWLOW">     0</i>
  </separator>
  <separator name="vdW DFT" >
   <i type="logical" name="LUSE_VDW"> F  </i>
   <i name="Zab_VDW">     -0.84910000</i>
   <i name="PARAM1">      0.12340000</i>
   <i name="PARAM2">      1.00000000</i>
   <i name="PARAM3">      0.00000000</i>
  </separator>
  <separator name="model GW" >
   <i type="int" name="MODEL_GW">     0</i>
   <i name="MODEL_EPS0">      8.52402557</i>
   <i name="MODEL_ALPHA">      1.00000000</i>
  </separator>
  <separator name="linear response parameters" >
   <i type="logical" name="LEPSILON"> F  </i>
   <i type="logical" name="LRPA"> F  </i>
   <i type="logical" name="LNABLA"> F  </i>
   <i type="logical" name="LVEL"> F  </i>
   <i type="int" name="KINTER">     0</i>
   <i name="CSHIFT">      0.10000000</i>
   <i name="OMEGAMAX">     -1.00000000</i>
   <i name="DEG_THRESHOLD">      0.00200000</i>
  </separator>
  <separator name="orbital magnetization" >
   <i type="logical" name="NUCIND"> F  </i>
   <v name="MAGPOS">      0.00000000      0.00000000      0.00000000</v>
   <i type="logical" name="LNICSALL"> T  </i>
   <i type="logical" name="ORBITALMAG"> F  </i>
   <i type="logical" name="LMAGBLOCH"> F  </i>
   <i type="logical" name="LCHIMAG"> F  </i>
   <i type="logical" name="LGAUGE"> T  </i>
   <i type="int" name="MAGATOM">     0</i>
   <v name="MAGDIPOL">      0.00000000      0.00000000      0.00000000</v>
   <v name="AVECCONST">      0.00000000      0.00000000      0.00000000</v>
  </separator>
  <separator name="response functions" >
   <i type="logical" name="LADDER"> F  </i>
   <i type="logical" name="LFXC"> F  </i>
   <i type="logical" name="LHARTREE"> T  </i>
   <i type="int" name="IBSE">     0</i>
   <i type="logical" name="LTCTE"> F  </i>
   <i type="logical" name="LTETE"> F  </i>
   <i type="logical" name="LTRIPLET"> F  </i>
   <i type="logical" name="LFXCEPS"> F  </i>
   <i type="logical" name="LFXHEG"> F  </i>
   <i type="logical" name="L2ORDER"> F  </i>
   <i type="logical" name="LUSEW"> F  </i>
   <i name="ENCUTGW">     -2.00000000</i>
   <i name="ENCUTGWSOFT">     -2.00000000</i>
   <i name="ENCUTLF">     -1.00000000</i>
   <i type="int" name="LMAXMP2">    -1</i>
   <i name="SCISSOR">      0.00000000</i>
   <i type="int" name="NOMEGA">     0</i>
   <i type="int" name="NOMEGAR">     0</i>
   <i type="int" name="NBANDSGW">    -1</i>
   <i type="int" name="NBANDSO">    -1</i>
   <i type="int" name="NBANDSV">    -1</i>
   <i type="int" name="NELM">     1</i>
   <i type="int" name="DIM">     3</i>
   <i type="int" name="ANTIRES">     0</i>
   <i name="OMEGAMAX">    -30.00000000</i>
   <i name="OMEGAMIN">    -30.00000000</i>
   <i name="OMEGATL">   -200.00000000</i>
   <i type="int" name="OMEGAGRID">     0</i>
   <i name="CSHIFT">     -0.10000000</i>
   <i type="logical" name="SELFENERGY"> F  </i>
   <i type="logical" name="LSPECTRAL"> F  </i>
   <i type="logical" name="ODDONLYGW"> F  </i>
   <i type="logical" name="EVENONLYGW"> F  </i>
   <i type="int" name="NKREDLFX">     1</i>
   <i type="int" name="NKREDLFY">     1</i>
   <i type="int" name="NKREDLFZ">     1</i>
   <i type="int" name="MAXMEM">  1800</i>
   <i type="int" name="TELESCOPE">     0</i>
   <i type="int" name="TAUPAR">     1</i>
  </separator>
  <separator name="External order field" >
   <i name="OFIELD_KAPPA">      0.00000000</i>
   <v name="OFIELD_K">      0.00000000      0.00000000      0.00000000</v>
   <i name="OFIELD_Q6_NEAR">      0.00000000</i>
   <i name="OFIELD_Q6_FAR">      0.00000000</i>
   <i name="OFIELD_A">      0.00000000</i>
  </separator>
 </parameters>
 <atominfo>
  <atoms>       1 </atoms>
  <types>       1 </types>
  <array name="atoms" >
   <dimension dim="1">ion</dimension>
   <field type="string">element</field>
   <field type="int">atomtype</field>
   <set>
    <rc><c>Ag</c><c>   1</c></rc>
   </set>
  </array>
  <array name="atomtypes" >
   <dimension dim="1">type</dimension>
   <field type="int">atomspertype</field>
   <field type="string">element</field>
   <field>mass</field>
   <field>valence</field>
   <field type="string">pseudopotential</field>
   <set>
    <rc><c>   1</c><c>Ag</c><c>    107.86800000</c><c>     11.00000000</c><c>  PAW_PBE Ag 02Apr2005                  </c></rc>
   </set>
  </array>
 </atominfo>
 <structure name="initialpos" >
  <crystal>
   <varray name="basis" >
    <v>       2.71854273       0.00000000       0.00000000 </v>
    <v>       1.35927137       2.35432707       0.00000000 </v>
    <v>       1.35927137       0.78477569       2.21968084 </v>
   </varray>
   <i name="volume">     14.20670929 </i>
   <varray name="rec_basis" >
    <v>       0.36784414      -0.21237491      -0.15017174 </v>
    <v>       0.00000000       0.42474982      -0.15017174 </v>
    <v>       0.00000000       0.00000000       0.45051522 </v>
   </varray>
  </crystal>
  <varray name="positions" >
   <v>       0.00000000       0.00000000       0.00000000 </v>
  </varray>
 </structure>
 <calculation>
  <scstep>
   <time name="dav">    0.40    0.40</time>
   <time name="total">    0.43    0.48</time>
   <energy>
    <i name="alphaZ">     59.87157560 </i>
    <i name="ewald">  -1038.93065647 </i>
    <i name="hartreedc">   -174.86371052 </i>
    <i name="XCdc">     -9.83847304 </i>
    <i name="pawpsdc">   1003.46214933 </i>
    <i name="pawaedc">   -957.34927423 </i>
    <i name="eentropy">      0.00041981 </i>
    <i name="bandstr">    107.79958504 </i>
    <i name="atom">   1037.24027811 </i>
    <i name="e_fr_energy">     27.39189362 </i>
    <i name="e_wo_entrp">     27.39147382 </i>
    <i name="e_0_energy">     27.39175369 </i>
   </energy>
  </scstep>
  <scstep>
   <time name="dav">    0.38    0.38</time>
   <time name="total">    0.39    0.41</time>
   <energy>
    <i name="e_fr_energy">     -2.48067984 </i>
    <i name="e_wo_entrp">     -2.48175229 </i>
    <i name="e_0_energy">     -2.48103732 </i>
   </energy>
  </scstep>
  <scstep>
   <time name="dav">    0.40    0.40</time>
   <time name="total">    0.41    0.42</time>
   <energy>
    <i name="e_fr_energy">     -2.67009348 </i>
    <i name="e_wo_entrp">     -2.67121534 </i>
    <i name="e_0_energy">     -2.67046743 </i>
   </energy>
  </scstep>
  <scstep>
   <time name="dav">    0.37    0.37</time>
   <time name="total">    0.38    0.39</time>
   <energy>
    <i name="e_fr_energy">     -2.67042605 </i>
    <i name="e_wo_entrp">     -2.67154797 </i>
    <i name="e_0_energy">     -2.67080002 </i>
   </energy>
  </scstep>
  <scstep>
   <time name="dav">    0.35    0.35</time>
   <time name="total">    0.39    0.42</time>
   <energy>
    <i name="e_fr_energy">     -2.67042795 </i>
    <i name="e_wo_entrp">     -2.67154988 </i>
    <i name="e_0_energy">     -2.67080193 </i>
   </energy>
  </scstep>
  <scstep>
   <time name="dav">    0.36    0.36</time>
   <time name="total">    0.41    0.42</time>
   <energy>
    <i name="e_fr_energy">     -2.39913079 </i>
    <i name="e_wo_entrp">     -2.39994455 </i>
    <i name="e_0_energy">     -2.39940204 </i>
   </energy>
  </scstep>
  <scstep>
   <time name="dav">    0.40    0.40</time>
   <time name="total">    0.45    0.50</time>
   <energy>
    <i name="e_fr_energy">     -2.37780342 </i>
    <i name="e_wo_entrp">     -2.37815474 </i>
    <i name="e_0_energy">     -2.37792052 </i>
   </energy>
  </scstep>
  <scstep>
   <time name="dav">    0.40    0.40</time>
   <time name="total">    0.46    0.46</time>
   <energy>
    <i name="e_fr_energy">     -2.37304916 </i>
    <i name="e_wo_entrp">     -2.37339669 </i>
    <i name="e_0_energy">     -2.37316500 </i>
   </energy>
  </scstep>
  <scstep>
   <time name="dav">    0.25    0.25</time>
   <time name="total">    0.28    0.29</time>
   <energy>
    <i name="alphaZ">     59.87157560 </i>
    <i name="ewald">  -1038.93065647 </i>
    <i name="hartreedc">   -161.08263546 </i>
    <i name="XCdc">    -10.32335761 </i>
    <i name="pawpsdc">   1216.37276901 </i>
    <i name="pawaedc">  -1174.34235342 </i>
    <i name="eentropy">      0.00034933 </i>
    <i name="bandstr">     68.82097696 </i>
    <i name="atom">   1037.24027811 </i>
    <i name="e_fr_energy">     -2.37305395 </i>
    <i name="e_wo_entrp">     -2.37340328 </i>
    <i name="e_0_energy">     -2.37317040 </i>
   </energy>
  </scstep>
  <structure>
   <crystal>
    <varray name="basis" >
     <v>       2.71854273       0.00000000       0.00000000 </v>
     <v>       1.35927137       2.35432707       0.00000000 </v>
     <v>       1.35927137       0.78477569       2.21968084 </v>
    </varray>
    <i name="volume">     14.20670929 </i>
    <varray name="rec_basis" >
     <v>       0.36784414      -0.21237491      -0.15017174 </v>
     <v>       0.00000000       0.42474982      -0.15017174 </v>
     <v>       0.00000000       0.00000000       0.45051522 </v>
    </varray>
   </crystal>
   <varray name="positions" >
    <v>       0.00000000       0.00000000       0.00000000 </v>
   </varray>
  </structure>
  <varray name="forces" >
   <v>       0.00000000       0.00000000       0.00000000 </v>
  </varray>
  <varray name="stress" >
   <v>     379.65248175       0.00000000       0.00000000 </v>
   <v>       0.00000000     379.65248175       0.00000000 </v>
   <v>       0.00000000       0.00000000     379.65248175 </v>
  </varray>
  <energy>
   <i name="e_fr_energy">     -2.37305395 </i>
   <i name="e_wo_entrp">     -2.37317040 </i>
   <i name="e_0_energy">      0.00034933 </i>
  </energy>
  <time name="totalsc">    4.18    4.59</time>
  <eigenvalues>
   <array>
    <dimension dim="1">band</dimension>
    <dimension dim="2">kpoint</dimension>
    <dimension dim="3">spin</dimension>
    <field>eigene</field>
    <field>occ</field>
    <set>
     <set comment="spin 1">
      <set comment="kpoint 1">
       <r>    2.1713    1.0000 </r>
       <r>    5.6338    1.0000 </r>
       <r>    5.7208    1.0000 </r>
       <r>    5.7208    1.0000 </r>
       <r>    7.0815    1.0000 </r>
       <r>    7.0815    1.0000 </r>
       <r>   27.6452    0.0000 </r>
       <r>   31.1848    0.0000 </r>
       <r>   32.3387    0.0000 </r>
      </set>
      <set comment="kpoint 2">
       <r>    2.8722    1.0000 </r>
       <r>    5.4361    1.0000 </r>
       <r>    5.9136    1.0000 </r>
       <r>    5.9448    1.0000 </r>
       <r>    6.8892    1.0000 </r>
       <r>    7.1945    1.0000 </r>
       <r>   27.5619    0.0000 </r>
       <r>   28.7289    0.0000 </r>
       <r>   31.7674    0.0000 </r>
      </set>
      <set comment="kpoint 3">
       <r>    3.7898    1.0000 </r>
       <r>    5.7834    1.0000 </r>
       <r>    5.9837    1.0000 </r>
       <r>    6.0558    1.0000 </r>
       <r>    7.1179    1.0000 </r>
       <r>    7.7546    1.0000 </r>
       <r>   23.0994    0.0000 </r>
       <r>   28.0798    0.0000 </r>
       <r>   31.5327    0.0000 </r>
      </set>
      <set comment="kpoint 4">
       <r>    3.7213    1.0000 </r>
       <r>    5.6697    1.0000 </r>
       <r>    5.7714    1.0000 </r>
       <r>    7.4883    1.0000 </r>
       <r>    7.8161    1.0000 </r>
       <r>    9.3487    1.0000 </r>
       <r>   18.2655    0.0000 </r>
       <r>   27.1321    0.0000 </r>
       <r>   30.2936    0.0000 </r>
      </set>
      <set comment="kpoint 5">
       <r>    3.6349    1.0000 </r>
       <r>    5.5708    1.0000 </r>
       <r>    5.7147    1.0000 </r>
       <r>    7.7544    1.0000 </r>
       <r>    8.1943    1.0000 </r>
       <r>   10.7404    1.0006 </r>
       <r>   16.1262    0.0000 </r>
       <r>   26.8413    0.0000 </r>
       <r>   30.4125    0.0000 </r>
      </set>
      <set comment="kpoint 6">
       <r>    3.7760    1.0000 </r>
       <r>    5.7176    1.0000 </r>
       <r>    5.8704    1.0000 </r>
       <r>    6.9035    1.0000 </r>
       <r>    7.9281    1.0000 </r>
       <r>    8.4611    1.0000 </r>
       <r>   19.7834    0.0000 </r>
       <r>   27.5274    0.0000 </r>
       <r>   30.7965    0.0000 </r>
      </set>
      <set comment="kpoint 7">
       <r>    3.5925    1.0000 </r>
       <r>    5.5055    1.0000 </r>
       <r>    5.9907    1.0000 </r>
       <r>    6.0314    1.0000 </r>
       <r>    7.0886    1.0000 </r>
       <r>    7.3780    1.0000 </r>
       <r>   24.7628    0.0000 </r>
       <r>   28.5577    0.0000 </r>
       <r>   31.6082    0.0000 </r>
      </set>
      <set comment="kpoint 8">
       <r>    2.5372    1.0000 </r>
       <r>    5.4787    1.0000 </r>
       <r>    5.8605    1.0000 </r>
       <r>    5.8644    1.0000 </r>
       <r>    6.9163    1.0000 </r>
       <r>    7.1658    1.0000 </r>
       <r>   27.8681    0.0000 </r>
       <r>   29.9204    0.0000 </r>
       <r>   31.8387    0.0000 </r>
      </set>
      <set comment="kpoint 9">
       <r>    3.2011    1.0000 </r>
       <r>    5.1777    1.0000 </r>
       <r>    6.1197    1.0000 </r>
       <r>    6.1444    1.0000 </r>
       <r>    6.7212    1.0000 </r>
       <r>    7.3239    1.0000 </r>
       <r>   27.9633    0.0000 </r>
       <r>   28.9490    0.0000 </r>
       <r>   30.5743    0.0000 </r>
      </set>
      <set comment="kpoint 10">
       <r>    4.1164    1.0000 </r>
       <r>    4.9415    1.0000 </r>
       <r>    5.9482    1.0000 </r>
       <r>    6.4902    1.0000 </r>
       <r>    7.1239    1.0000 </r>
       <r>    7.8823    1.0000 </r>
       <r>   25.2359    0.0000 </r>
       <r>   27.2845    0.0000 </r>
       <r>   29.9712    0.0000 </r>
      </set>
      <set comment="kpoint 11">
       <r>    4.1754    1.0000 </r>
       <r>    5.4329    1.0000 </r>
       <r>    5.8610    1.0000 </r>
       <r>    6.3763    1.0000 </r>
       <r>    7.9239    1.0000 </r>
       <r>    9.8299    1.0000 </r>
       <r>   20.1815    0.0000 </r>
       <r>   26.6491    0.0000 </r>
       <r>   28.0234    0.0000 </r>
      </set>
      <set comment="kpoint 12">
       <r>    4.0774    1.0000 </r>
       <r>    5.2486    1.0000 </r>
       <r>    6.1475    1.0000 </r>
       <r>    6.6310    1.0000 </r>
       <r>    8.1372    1.0000 </r>
       <r>   12.5654    0.0000 </r>
       <r>   16.2344    0.0000 </r>
       <r>   26.0394    0.0000 </r>
       <r>   27.4445    0.0000 </r>
      </set>
      <set comment="kpoint 13">
       <r>    4.2115    1.0000 </r>
       <r>    5.3731    1.0000 </r>
       <r>    6.1153    1.0000 </r>
       <r>    6.4114    1.0000 </r>
       <r>    7.7284    1.0000 </r>
       <r>   10.9148    1.0156 </r>
       <r>   18.6783    0.0000 </r>
       <r>   25.5076    0.0000 </r>
       <r>   28.3723    0.0000 </r>
      </set>
      <set comment="kpoint 14">
       <r>    4.3890    1.0000 </r>
       <r>    5.1818    1.0000 </r>
       <r>    5.7789    1.0000 </r>
       <r>    6.4512    1.0000 </r>
       <r>    6.9298    1.0000 </r>
       <r>    8.6620    1.0000 </r>
       <r>   23.5807    0.0000 </r>
       <r>   25.8106    0.0000 </r>
       <r>   30.2700    0.0000 </r>
      </set>
      <set comment="kpoint 15">
       <r>    3.4719    1.0000 </r>
       <r>    5.2329    1.0000 </r>
       <r>    6.0380    1.0000 </r>
       <r>    6.1403    1.0000 </r>
       <r>    6.8054    1.0000 </r>
       <r>    7.4452    1.0000 </r>
       <r>   26.5231    0.0000 </r>
       <r>   28.1021    0.0000 </r>
       <r>   31.2435    0.0000 </r>
      </set>
      <set comment="kpoint 16">
       <r>    4.1665    1.0000 </r>
       <r>    4.4247    1.0000 </r>
       <r>    6.7010    1.0000 </r>
       <r>    7.0181    1.0000 </r>
       <r>    7.7769    1.0000 </r>
       <r>    7.8395    1.0000 </r>
       <r>   25.6192    0.0000 </r>
       <r>   26.8143    0.0000 </r>
       <r>   27.3219    0.0000 </r>
      </set>
      <set comment="kpoint 17">
       <r>    4.1212    1.0000 </r>
       <r>    4.3199    1.0000 </r>
       <r>    6.5837    1.0000 </r>
       <r>    7.4095    1.0000 </r>
       <r>    7.9879    1.0000 </r>
       <r>   10.2055    1.0000 </r>
       <r>   22.6110    0.0000 </r>
       <r>   24.6481    0.0000 </r>
       <r>   24.8734    0.0000 </r>
      </set>
      <set comment="kpoint 18">
       <r>    4.1717    1.0000 </r>
       <r>    4.7308    1.0000 </r>
       <r>    6.2128    1.0000 </r>
       <r>    7.0667    1.0000 </r>
       <r>    8.2094    1.0000 </r>
       <r>   13.7386    0.0000 </r>
       <r>   18.0075    0.0000 </r>
       <r>   22.6479    0.0000 </r>
       <r>   25.0584    0.0000 </r>
      </set>
      <set comment="kpoint 19">
       <r>    4.5713    1.0000 </r>
       <r>    5.1624    1.0000 </r>
       <r>    5.6837    1.0000 </r>
       <r>    6.8291    1.0000 </r>
       <r>    7.7632    1.0000 </r>
       <r>   13.9550    0.0000 </r>
       <r>   18.2807    0.0000 </r>
       <r>   21.1759    0.0000 </r>
       <r>   26.7457    0.0000 </r>
      </set>
      <set comment="kpoint 20">
       <r>    4.7451    1.0000 </r>
       <r>    5.2478    1.0000 </r>
       <r>    5.5636    1.0000 </r>
       <r>    6.6350    1.0000 </r>
       <r>    7.2945    1.0000 </r>
       <r>   10.9416    1.0213 </r>
       <r>   20.7906    0.0000 </r>
       <r>   23.1646    0.0000 </r>
       <r>   28.4984    0.0000 </r>
      </set>
      <set comment="kpoint 21">
       <r>    4.0064    1.0000 </r>
       <r>    5.7246    1.0000 </r>
       <r>    5.9587    1.0000 </r>
       <r>    6.1420    1.0000 </r>
       <r>    7.4756    1.0000 </r>
       <r>    8.5208    1.0000 </r>
       <r>   21.5745    0.0000 </r>
       <r>   27.4449    0.0000 </r>
       <r>   29.9947    0.0000 </r>
      </set>
      <set comment="kpoint 22">
       <r>    3.6715    1.0000 </r>
       <r>    3.8371    1.0000 </r>
       <r>    7.8837    1.0000 </r>
       <r>    7.9056    1.0000 </r>
       <r>    8.2509    1.0000 </r>
       <r>   11.1399    0.9396 </r>
       <r>   21.9560    0.0000 </r>
       <r>   22.9938    0.0000 </r>
       <r>   23.8146    0.0000 </r>
      </set>
      <set comment="kpoint 23">
       <r>    3.7002    1.0000 </r>
       <r>    3.9250    1.0000 </r>
       <r>    7.4741    1.0000 </r>
       <r>    7.8605    1.0000 </r>
       <r>    8.4061    1.0000 </r>
       <r>   13.7114    0.0000 </r>
       <r>   19.8986    0.0000 </r>
       <r>   21.0751    0.0000 </r>
       <r>   22.9655    0.0000 </r>
      </set>
      <set comment="kpoint 24">
       <r>    4.0875    1.0000 </r>
       <r>    4.6009    1.0000 </r>
       <r>    6.4030    1.0000 </r>
       <r>    7.2994    1.0000 </r>
       <r>    8.1691    1.0000 </r>
       <r>   15.7871    0.0000 </r>
       <r>   17.4622    0.0000 </r>
       <r>   20.2664    0.0000 </r>
       <r>   24.6410    0.0000 </r>
      </set>
      <set comment="kpoint 25">
       <r>    4.3907    1.0000 </r>
       <r>    5.0720    1.0000 </r>
       <r>    6.1389    1.0000 </r>
       <r>    6.5031    1.0000 </r>
       <r>    7.9901    1.0000 </r>
       <r>   13.7934    0.0000 </r>
       <r>   16.4904    0.0000 </r>
       <r>   23.7407    0.0000 </r>
       <r>   26.9009    0.0000 </r>
      </set>
      <set comment="kpoint 26">
       <r>    3.8309    1.0000 </r>
       <r>    5.4861    1.0000 </r>
       <r>    5.8860    1.0000 </r>
       <r>    7.1209    1.0000 </r>
       <r>    8.0781    1.0000 </r>
       <r>   10.8409    1.0049 </r>
       <r>   17.0421    0.0000 </r>
       <r>   26.8198    0.0000 </r>
       <r>   29.0446    0.0000 </r>
      </set>
      <set comment="kpoint 27">
       <r>    3.4998    1.0000 </r>
       <r>    3.7057    1.0000 </r>
       <r>    8.0667    1.0000 </r>
       <r>    8.2170    1.0000 </r>
       <r>    8.4240    1.0000 </r>
       <r>   12.7219    0.0000 </r>
       <r>   19.8965    0.0000 </r>
       <r>   22.3281    0.0000 </r>
       <r>   23.1184    0.0000 </r>
      </set>
      <set comment="kpoint 28">
       <r>    3.8656    1.0000 </r>
       <r>    4.0556    1.0000 </r>
       <r>    7.1015    1.0000 </r>
       <r>    7.7678    1.0000 </r>
       <r>    8.2306    1.0000 </r>
       <r>   12.0525    0.0000 </r>
       <r>   21.4881    0.0000 </r>
       <r>   22.2024    0.0000 </r>
       <r>   23.5623    0.0000 </r>
      </set>
      <set comment="kpoint 29">
       <r>    4.2313    1.0000 </r>
       <r>    5.0240    1.0000 </r>
       <r>    5.9809    1.0000 </r>
       <r>    6.7181    1.0000 </r>
       <r>    8.1576    1.0000 </r>
       <r>   11.6313   -0.0140 </r>
       <r>   18.9579    0.0000 </r>
       <r>   25.3121    0.0000 </r>
       <r>   25.9027    0.0000 </r>
      </set>
      <set comment="kpoint 30">
       <r>    3.9512    1.0000 </r>
       <r>    4.0878    1.0000 </r>
       <r>    7.3610    1.0000 </r>
       <r>    7.5029    1.0000 </r>
       <r>    8.0196    1.0000 </r>
       <r>    9.3036    1.0000 </r>
       <r>   24.1626    0.0000 </r>
       <r>   24.7159    0.0000 </r>
       <r>   25.1014    0.0000 </r>
      </set>
      <set comment="kpoint 31">
       <r>    4.3272    1.0000 </r>
       <r>    4.6462    1.0000 </r>
       <r>    6.0837    1.0000 </r>
       <r>    6.9335    1.0000 </r>
       <r>    7.6344    1.0000 </r>
       <r>    8.7342    1.0000 </r>
       <r>   23.9027    0.0000 </r>
       <r>   26.0078    0.0000 </r>
       <r>   27.6166    0.0000 </r>
      </set>
      <set comment="kpoint 32">
       <r>    3.9185    1.0000 </r>
       <r>    4.8045    1.0000 </r>
       <r>    6.2780    1.0000 </r>
       <r>    6.5423    1.0000 </r>
       <r>    6.9742    1.0000 </r>
       <r>    7.5365    1.0000 </r>
       <r>   27.0186    0.0000 </r>
       <r>   28.7443    0.0000 </r>
       <r>   28.8091    0.0000 </r>
      </set>
      <set comment="kpoint 33">
       <r>    3.1405    1.0000 </r>
       <r>    5.5258    1.0000 </r>
       <r>    5.9366    1.0000 </r>
       <r>    5.9366    1.0000 </r>
       <r>    7.0761    1.0000 </r>
       <r>    7.0761    1.0000 </r>
       <r>   26.2448    0.0000 </r>
       <r>   28.7013    0.0000 </r>
       <r>   33.1461    0.0000 </r>
      </set>
      <set comment="kpoint 34">
       <r>    3.9296    1.0000 </r>
       <r>    5.2504    1.0000 </r>
       <r>    6.0016    1.0000 </r>
       <r>    6.2235    1.0000 </r>
       <r>    6.7112    1.0000 </r>
       <r>    7.9163    1.0000 </r>
       <r>   25.0013    0.0000 </r>
       <r>   27.0082    0.0000 </r>
       <r>   31.6404    0.0000 </r>
      </set>
      <set comment="kpoint 35">
       <r>    4.5969    1.0000 </r>
       <r>    5.3123    1.0000 </r>
       <r>    5.8105    1.0000 </r>
       <r>    6.3842    1.0000 </r>
       <r>    6.9444    1.0000 </r>
       <r>    9.6581    1.0000 </r>
       <r>   22.1050    0.0000 </r>
       <r>   24.4147    0.0000 </r>
       <r>   30.0242    0.0000 </r>
      </set>
      <set comment="kpoint 36">
       <r>    4.2769    1.0000 </r>
       <r>    5.2603    1.0000 </r>
       <r>    6.2420    1.0000 </r>
       <r>    6.4099    1.0000 </r>
       <r>    7.7808    1.0000 </r>
       <r>   12.2440    0.0000 </r>
       <r>   17.4223    0.0000 </r>
       <r>   24.4894    0.0000 </r>
       <r>   28.9374    0.0000 </r>
      </set>
      <set comment="kpoint 37">
       <r>    4.1186    1.0000 </r>
       <r>    5.2124    1.0000 </r>
       <r>    6.3003    1.0000 </r>
       <r>    6.3250    1.0000 </r>
       <r>    8.2364    1.0000 </r>
       <r>   12.1142    0.0000 </r>
       <r>   17.2714    0.0000 </r>
       <r>   25.5954    0.0000 </r>
       <r>   27.9480    0.0000 </r>
      </set>
      <set comment="kpoint 38">
       <r>    4.1974    1.0000 </r>
       <r>    5.0710    1.0000 </r>
       <r>    5.9446    1.0000 </r>
       <r>    6.5317    1.0000 </r>
       <r>    8.0218    1.0000 </r>
       <r>    9.0172    1.0000 </r>
       <r>   21.9375    0.0000 </r>
       <r>   27.3387    0.0000 </r>
       <r>   27.7185    0.0000 </r>
      </set>
      <set comment="kpoint 39">
       <r>    4.0307    1.0000 </r>
       <r>    5.3782    1.0000 </r>
       <r>    5.8537    1.0000 </r>
       <r>    6.2292    1.0000 </r>
       <r>    7.7165    1.0000 </r>
       <r>    7.7434    1.0000 </r>
       <r>   23.3233    0.0000 </r>
       <r>   28.3028    0.0000 </r>
       <r>   29.6169    0.0000 </r>
      </set>
      <set comment="kpoint 40">
       <r>    4.5643    1.0000 </r>
       <r>    5.0769    1.0000 </r>
       <r>    5.5470    1.0000 </r>
       <r>    6.8383    1.0000 </r>
       <r>    7.3998    1.0000 </r>
       <r>    9.7768    1.0000 </r>
       <r>   22.2550    0.0000 </r>
       <r>   24.5694    0.0000 </r>
       <r>   27.9371    0.0000 </r>
      </set>
      <set comment="kpoint 41">
       <r>    4.8437    1.0000 </r>
       <r>    4.9574    1.0000 </r>
       <r>    5.4304    1.0000 </r>
       <r>    6.9517    1.0000 </r>
       <r>    7.7330    1.0000 </r>
       <r>   12.5977    0.0000 </r>
       <r>   19.6364    0.0000 </r>
       <r>   22.1552    0.0000 </r>
       <r>   25.8749    0.0000 </r>
      </set>
      <set comment="kpoint 42">
       <r>    4.5444    1.0000 </r>
       <r>    4.8837    1.0000 </r>
       <r>    5.8055    1.0000 </r>
       <r>    6.8490    1.0000 </r>
       <r>    8.1121    1.0000 </r>
       <r>   14.7617    0.0000 </r>
       <r>   16.7351    0.0000 </r>
       <r>   23.2515    0.0000 </r>
       <r>   24.1776    0.0000 </r>
      </set>
      <set comment="kpoint 43">
       <r>    4.4359    1.0000 </r>
       <r>    4.7233    1.0000 </r>
       <r>    5.8240    1.0000 </r>
       <r>    7.2421    1.0000 </r>
       <r>    7.8188    1.0000 </r>
       <r>   11.3557    0.1688 </r>
       <r>   21.0594    0.0000 </r>
       <r>   23.4219    0.0000 </r>
       <r>   25.2342    0.0000 </r>
      </set>
      <set comment="kpoint 44">
       <r>    4.1045    1.0000 </r>
       <r>    4.6582    1.0000 </r>
       <r>    6.3756    1.0000 </r>
       <r>    6.9105    1.0000 </r>
       <r>    8.2323    1.0000 </r>
       <r>   10.7347    1.0005 </r>
       <r>   20.6648    0.0000 </r>
       <r>   25.0033    0.0000 </r>
       <r>   26.1463    0.0000 </r>
      </set>
      <set comment="kpoint 45">
       <r>    4.2168    1.0000 </r>
       <r>    4.4495    1.0000 </r>
       <r>    6.2258    1.0000 </r>
       <r>    7.4624    1.0000 </r>
       <r>    8.1652    1.0000 </r>
       <r>   13.2891    0.0000 </r>
       <r>   20.1061    0.0000 </r>
       <r>   22.2852    0.0000 </r>
       <r>   22.7549    0.0000 </r>
      </set>
      <set comment="kpoint 46">
       <r>    4.3924    1.0000 </r>
       <r>    4.8989    1.0000 </r>
       <r>    5.6484    1.0000 </r>
       <r>    7.1226    1.0000 </r>
       <r>    8.3984    1.0000 </r>
       <r>   16.6885    0.0000 </r>
       <r>   18.1914    0.0000 </r>
       <r>   20.3248    0.0000 </r>
       <r>   21.3755    0.0000 </r>
      </set>
      <set comment="kpoint 47">
       <r>    4.5866    1.0000 </r>
       <r>    4.9090    1.0000 </r>
       <r>    5.5198    1.0000 </r>
       <r>    7.1080    1.0000 </r>
       <r>    8.1363    1.0000 </r>
       <r>   14.6017    0.0000 </r>
       <r>   18.7189    0.0000 </r>
       <r>   21.4317    0.0000 </r>
       <r>   23.1126    0.0000 </r>
      </set>
      <set comment="kpoint 48">
       <r>    3.8113    1.0000 </r>
       <r>    4.1941    1.0000 </r>
       <r>    7.1138    1.0000 </r>
       <r>    7.6109    1.0000 </r>
       <r>    8.2643    1.0000 </r>
       <r>   14.5281    0.0000 </r>
       <r>   19.0580    0.0000 </r>
       <r>   20.1196    0.0000 </r>
       <r>   24.4455    0.0000 </r>
      </set>
      <set comment="kpoint 49">
       <r>    4.0516    1.0000 </r>
       <r>    4.3357    1.0000 </r>
       <r>    6.5340    1.0000 </r>
       <r>    7.4708    1.0000 </r>
       <r>    8.4002    1.0000 </r>
       <r>   15.1404    0.0000 </r>
       <r>   19.5054    0.0000 </r>
       <r>   20.2066    0.0000 </r>
       <r>   22.1568    0.0000 </r>
      </set>
      <set comment="kpoint 50">
       <r>    3.9350    1.0000 </r>
       <r>    4.3458    1.0000 </r>
       <r>    6.8300    1.0000 </r>
       <r>    7.3070    1.0000 </r>
       <r>    8.3064    1.0000 </r>
       <r>   12.7231    0.0000 </r>
       <r>   19.6484    0.0000 </r>
       <r>   22.3066    0.0000 </r>
       <r>   25.0274    0.0000 </r>
      </set>
      <set comment="kpoint 51">
       <r>    3.7220    1.0000 </r>
       <r>    5.8544    1.0000 </r>
       <r>    5.8544    1.0000 </r>
       <r>    6.8330    1.0000 </r>
       <r>    7.5535    1.0000 </r>
       <r>    7.5535    1.0000 </r>
       <r>   21.3440    0.0000 </r>
       <r>   27.8971    0.0000 </r>
       <r>   32.8136    0.0000 </r>
      </set>
      <set comment="kpoint 52">
       <r>    4.0688    1.0000 </r>
       <r>    5.6021    1.0000 </r>
       <r>    6.0277    1.0000 </r>
       <r>    6.4715    1.0000 </r>
       <r>    7.3979    1.0000 </r>
       <r>    9.5362    1.0000 </r>
       <r>   20.0289    0.0000 </r>
       <r>   26.4424    0.0000 </r>
       <r>   29.5708    0.0000 </r>
      </set>
      <set comment="kpoint 53">
       <r>    4.6796    1.0000 </r>
       <r>    5.2665    1.0000 </r>
       <r>    5.7437    1.0000 </r>
       <r>    6.5865    1.0000 </r>
       <r>    7.4394    1.0000 </r>
       <r>   12.3024    0.0000 </r>
       <r>   19.4748    0.0000 </r>
       <r>   21.9986    0.0000 </r>
       <r>   29.3247    0.0000 </r>
      </set>
      <set comment="kpoint 54">
       <r>    4.2567    1.0000 </r>
       <r>    4.9670    1.0000 </r>
       <r>    6.0859    1.0000 </r>
       <r>    7.0297    1.0000 </r>
       <r>    7.9147    1.0000 </r>
       <r>   15.4956    0.0000 </r>
       <r>   17.0062    0.0000 </r>
       <r>   20.5715    0.0000 </r>
       <r>   26.7801    0.0000 </r>
      </set>
      <set comment="kpoint 55">
       <r>    3.9294    1.0000 </r>
       <r>    5.4881    1.0000 </r>
       <r>    6.0347    1.0000 </r>
       <r>    6.5614    1.0000 </r>
       <r>    8.1719    1.0000 </r>
       <r>   10.1330    1.0000 </r>
       <r>   18.4145    0.0000 </r>
       <r>   27.1118    0.0000 </r>
       <r>   29.1615    0.0000 </r>
      </set>
      <set comment="kpoint 56">
       <r>    4.4087    1.0000 </r>
       <r>    5.0697    1.0000 </r>
       <r>    5.9980    1.0000 </r>
       <r>    6.5660    1.0000 </r>
       <r>    8.0027    1.0000 </r>
       <r>   12.6971    0.0000 </r>
       <r>   17.5428    0.0000 </r>
       <r>   24.7237    0.0000 </r>
       <r>   26.0019    0.0000 </r>
      </set>
      <set comment="kpoint 57">
       <r>    4.4787    1.0000 </r>
       <r>    4.9688    1.0000 </r>
       <r>    5.6670    1.0000 </r>
       <r>    7.0344    1.0000 </r>
       <r>    8.1351    1.0000 </r>
       <r>   15.9288    0.0000 </r>
       <r>   17.3097    0.0000 </r>
       <r>   20.6815    0.0000 </r>
       <r>   23.9011    0.0000 </r>
      </set>
      <set comment="kpoint 58">
       <r>    4.2422    1.0000 </r>
       <r>    5.0178    1.0000 </r>
       <r>    6.1491    1.0000 </r>
       <r>    6.6951    1.0000 </r>
       <r>    8.1202    1.0000 </r>
       <r>   14.2583    0.0000 </r>
       <r>   16.4936    0.0000 </r>
       <r>   23.0510    0.0000 </r>
       <r>   27.1615    0.0000 </r>
      </set>
      <set comment="kpoint 59">
       <r>    3.5767    1.0000 </r>
       <r>    5.6636    1.0000 </r>
       <r>    5.6636    1.0000 </r>
       <r>    8.1023    1.0000 </r>
       <r>    8.1023    1.0000 </r>
       <r>    9.6004    1.0000 </r>
       <r>   16.9231    0.0000 </r>
       <r>   26.9375    0.0000 </r>
       <r>   31.2512    0.0000 </r>
      </set>
      <set comment="kpoint 60">
       <r>    3.8812    1.0000 </r>
       <r>    5.4124    1.0000 </r>
       <r>    5.9189    1.0000 </r>
       <r>    7.1130    1.0000 </r>
       <r>    8.0740    1.0000 </r>
       <r>   11.8046   -0.0005 </r>
       <r>   16.1859    0.0000 </r>
       <r>   26.4131    0.0000 </r>
       <r>   28.9946    0.0000 </r>
      </set>
     </set>
    </set>
   </array>
  </eigenvalues>
  <separator name="orbital magnetization" >
   <v name="MAGDIPOLOUT">      0.00000000      0.00000000      0.00000000</v>
  </separator>
  <dos>
   <i name="efermi">     11.26911270 </i>
   <total>
    <array>
     <dimension dim="1">gridpoints</dimension>
     <dimension dim="2">spin</dimension>
     <field>energy</field>
     <field>total</field>
     <field>integrated</field>
     <set>
      <set comment="spin 1">
       <r>     0.1713     0.0000     0.0000 </r>
       <r>     0.2879     0.0000     0.0000 </r>
       <r>     0.4045     0.0000     0.0000 </r>
       <r>     0.5211     0.0000     0.0000 </r>
       <r>     0.6376     0.0000     0.0000 </r>
       <r>     0.7542     0.0000     0.0000 </r>
       <r>     0.8708     0.0000     0.0000 </r>
       <r>     0.9874     0.0000     0.0000 </r>
       <r>     1.1040     0.0000     0.0000 </r>
       <r>     1.2206     0.0000     0.0000 </r>
       <r>     1.3371     0.0000     0.0000 </r>
       <r>     1.4537     0.0000     0.0000 </r>
       <r>     1.5703     0.0000     0.0000 </r>
       <r>     1.6869    -0.0001     0.0000 </r>
       <r>     1.8035    -0.0008    -0.0001 </r>
       <r>     1.9201    -0.0015    -0.0003 </r>
       <r>     2.0366     0.0055     0.0004 </r>
       <r>     2.1532     0.0232     0.0031 </r>
       <r>     2.2698     0.0249     0.0060 </r>
       <r>     2.3864     0.0221     0.0085 </r>
       <r>     2.5030     0.0643     0.0160 </r>
       <r>     2.6195     0.0868     0.0262 </r>
       <r>     2.7361     0.0570     0.0328 </r>
       <r>     2.8527     0.0700     0.0410 </r>
       <r>     2.9693     0.0830     0.0507 </r>
       <r>     3.0859     0.0721     0.0591 </r>
       <r>     3.2025     0.0943     0.0701 </r>
       <r>     3.3190     0.0986     0.0816 </r>
       <r>     3.4356     0.1817     0.1027 </r>
       <r>     3.5522     0.4166     0.1513 </r>
       <r>     3.6688     0.7431     0.2380 </r>
       <r>     3.7854     1.1571     0.3729 </r>
       <r>     3.9020     1.5813     0.5572 </r>
       <r>     4.0185     2.0919     0.8011 </r>
       <r>     4.1351     2.6710     1.1125 </r>
       <r>     4.2517     2.7987     1.4388 </r>
       <r>     4.3683     2.5480     1.7358 </r>
       <r>     4.4849     2.2974     2.0036 </r>
       <r>     4.6015     2.0071     2.2376 </r>
       <r>     4.7180     1.6674     2.4320 </r>
       <r>     4.8346     1.4938     2.6062 </r>
       <r>     4.9512     1.7420     2.8093 </r>
       <r>     5.0678     1.9513     3.0368 </r>
       <r>     5.1844     1.8868     3.2567 </r>
       <r>     5.3009     1.7631     3.4623 </r>
       <r>     5.4175     1.7291     3.6639 </r>
       <r>     5.5341     1.8989     3.8852 </r>
       <r>     5.6507     2.0710     4.1267 </r>
       <r>     5.7673     2.3589     4.4017 </r>
       <r>     5.8839     2.7885     4.7268 </r>
       <r>     6.0004     3.1034     5.0886 </r>
       <r>     6.1170     3.0559     5.4448 </r>
       <r>     6.2336     2.4759     5.7335 </r>
       <r>     6.3502     1.8698     5.9515 </r>
       <r>     6.4668     1.9451     6.1782 </r>
       <r>     6.5834     2.1310     6.4267 </r>
       <r>     6.6999     1.8630     6.6439 </r>
       <r>     6.8165     1.7533     6.8483 </r>
       <r>     6.9331     2.1211     7.0956 </r>
       <r>     7.0497     2.5037     7.3875 </r>
       <r>     7.1663     2.4186     7.6694 </r>
       <r>     7.2829     1.9235     7.8937 </r>
       <r>     7.3994     1.9407     8.1199 </r>
       <r>     7.5160     2.0141     8.3547 </r>
       <r>     7.6326     1.5709     8.5379 </r>
       <r>     7.7492     1.7354     8.7402 </r>
       <r>     7.8658     2.2854     9.0066 </r>
       <r>     7.9824     2.4148     9.2881 </r>
       <r>     8.0989     2.6972     9.6026 </r>
       <r>     8.2155     2.8457     9.9343 </r>
       <r>     8.3321     2.0626    10.1748 </r>
       <r>     8.4487     1.1756    10.3119 </r>
       <r>     8.5653     0.6987    10.3933 </r>
       <r>     8.6818     0.4489    10.4457 </r>
       <r>     8.7984     0.3061    10.4813 </r>
       <r>     8.9150     0.1397    10.4976 </r>
       <r>     9.0316     0.0714    10.5059 </r>
       <r>     9.1482     0.0706    10.5142 </r>
       <r>     9.2648     0.1134    10.5274 </r>
       <r>     9.3813     0.1810    10.5485 </r>
       <r>     9.4979     0.1776    10.5692 </r>
       <r>     9.6145     0.2081    10.5935 </r>
       <r>     9.7311     0.3410    10.6332 </r>
       <r>     9.8477     0.4065    10.6806 </r>
       <r>     9.9643     0.2397    10.7086 </r>
       <r>    10.0808     0.1325    10.7240 </r>
       <r>    10.1974     0.2349    10.7514 </r>
       <r>    10.3140     0.2138    10.7763 </r>
       <r>    10.4306     0.0474    10.7818 </r>
       <r>    10.5472    -0.0247    10.7790 </r>
       <r>    10.6638     0.0743    10.7876 </r>
       <r>    10.7803     0.3410    10.8274 </r>
       <r>    10.8969     0.5840    10.8955 </r>
       <r>    11.0135     0.5088    10.9548 </r>
       <r>    11.1301     0.2335    10.9820 </r>
       <r>    11.2467     0.1255    10.9966 </r>
       <r>    11.3632     0.1719    11.0167 </r>
       <r>    11.4798     0.1717    11.0367 </r>
       <r>    11.5964     0.1707    11.0566 </r>
       <r>    11.7130     0.2054    11.0805 </r>
       <r>    11.8296     0.1571    11.0989 </r>
       <r>    11.9462     0.1292    11.1139 </r>
       <r>    12.0627     0.2363    11.1415 </r>
       <r>    12.1793     0.3122    11.1779 </r>
       <r>    12.2959     0.2411    11.2060 </r>
       <r>    12.4125     0.1461    11.2230 </r>
       <r>    12.5291     0.2689    11.2544 </r>
       <r>    12.6457     0.5701    11.3208 </r>
       <r>    12.7622     0.5765    11.3880 </r>
       <r>    12.8788     0.2423    11.4163 </r>
       <r>    12.9954    -0.0010    11.4162 </r>
       <r>    13.1120    -0.0149    11.4144 </r>
       <r>    13.2286     0.0994    11.4260 </r>
       <r>    13.3452     0.1795    11.4469 </r>
       <r>    13.4617     0.0858    11.4570 </r>
       <r>    13.5783     0.0541    11.4633 </r>
       <r>    13.6949     0.3246    11.5011 </r>
       <r>    13.8115     0.5667    11.5672 </r>
       <r>    13.9281     0.4467    11.6192 </r>
       <r>    14.0446     0.2123    11.6440 </r>
       <r>    14.1612     0.0816    11.6535 </r>
       <r>    14.2778     0.0668    11.6613 </r>
       <r>    14.3944     0.0766    11.6702 </r>
       <r>    14.5110     0.1561    11.6884 </r>
       <r>    14.6276     0.3000    11.7234 </r>
       <r>    14.7441     0.3213    11.7609 </r>
       <r>    14.8607     0.1939    11.7835 </r>
       <r>    14.9773     0.0684    11.7914 </r>
       <r>    15.0939     0.1111    11.8044 </r>
       <r>    15.2105     0.1762    11.8249 </r>
       <r>    15.3271     0.1001    11.8366 </r>
       <r>    15.4436     0.0553    11.8430 </r>
       <r>    15.5602     0.0749    11.8518 </r>
       <r>    15.6768     0.0941    11.8627 </r>
       <r>    15.7934     0.2005    11.8861 </r>
       <r>    15.9100     0.2916    11.9201 </r>
       <r>    16.0266     0.2582    11.9502 </r>
       <r>    16.1431     0.2755    11.9823 </r>
       <r>    16.2597     0.3281    12.0206 </r>
       <r>    16.3763     0.2622    12.0512 </r>
       <r>    16.4929     0.2665    12.0822 </r>
       <r>    16.6095     0.3548    12.1236 </r>
       <r>    16.7260     0.3987    12.1701 </r>
       <r>    16.8426     0.3109    12.2063 </r>
       <r>    16.9592     0.2333    12.2335 </r>
       <r>    17.0758     0.2699    12.2650 </r>
       <r>    17.1924     0.2508    12.2942 </r>
       <r>    17.3090     0.3202    12.3315 </r>
       <r>    17.4255     0.4823    12.3878 </r>
       <r>    17.5421     0.4873    12.4446 </r>
       <r>    17.6587     0.2566    12.4745 </r>
       <r>    17.7753     0.0289    12.4779 </r>
       <r>    17.8919     0.0167    12.4798 </r>
       <r>    18.0085     0.1487    12.4971 </r>
       <r>    18.1250     0.2940    12.5314 </r>
       <r>    18.2416     0.4421    12.5830 </r>
       <r>    18.3582     0.4303    12.6331 </r>
       <r>    18.4748     0.2160    12.6583 </r>
       <r>    18.5914     0.1562    12.6765 </r>
       <r>    18.7080     0.3179    12.7136 </r>
       <r>    18.8245     0.3368    12.7528 </r>
       <r>    18.9411     0.2597    12.7831 </r>
       <r>    19.0577     0.2420    12.8113 </r>
       <r>    19.1743     0.1254    12.8260 </r>
       <r>    19.2909     0.0080    12.8269 </r>
       <r>    19.4074     0.0922    12.8376 </r>
       <r>    19.5240     0.3315    12.8763 </r>
       <r>    19.6406     0.4544    12.9293 </r>
       <r>    19.7572     0.3881    12.9745 </r>
       <r>    19.8738     0.3470    13.0150 </r>
       <r>    19.9904     0.4078    13.0625 </r>
       <r>    20.1069     0.6041    13.1329 </r>
       <r>    20.2235     0.8358    13.2304 </r>
       <r>    20.3401     0.6952    13.3114 </r>
       <r>    20.4567     0.2929    13.3456 </r>
       <r>    20.5733     0.1822    13.3668 </r>
       <r>    20.6899     0.3736    13.4104 </r>
       <r>    20.8064     0.4003    13.4570 </r>
       <r>    20.9230     0.2481    13.4860 </r>
       <r>    21.0396     0.3226    13.5236 </r>
       <r>    21.1562     0.4736    13.5788 </r>
       <r>    21.2728     0.4083    13.6264 </r>
       <r>    21.3894     0.4672    13.6809 </r>
       <r>    21.5059     0.6170    13.7528 </r>
       <r>    21.6225     0.4510    13.8054 </r>
       <r>    21.7391     0.1300    13.8205 </r>
       <r>    21.8557     0.0466    13.8259 </r>
       <r>    21.9723     0.2337    13.8532 </r>
       <r>    22.0889     0.5645    13.9190 </r>
       <r>    22.2054     0.9539    14.0302 </r>
       <r>    22.3220     0.9479    14.1407 </r>
       <r>    22.4386     0.4561    14.1939 </r>
       <r>    22.5552     0.2209    14.2196 </r>
       <r>    22.6718     0.3962    14.2658 </r>
       <r>    22.7883     0.4059    14.3131 </r>
       <r>    22.9049     0.3089    14.3492 </r>
       <r>    23.0215     0.5208    14.4099 </r>
       <r>    23.1381     0.8060    14.5038 </r>
       <r>    23.2547     0.7370    14.5898 </r>
       <r>    23.3713     0.4836    14.6461 </r>
       <r>    23.4878     0.4125    14.6942 </r>
       <r>    23.6044     0.4652    14.7485 </r>
       <r>    23.7210     0.4603    14.8021 </r>
       <r>    23.8376     0.5005    14.8605 </r>
       <r>    23.9542     0.4896    14.9176 </r>
       <r>    24.0708     0.3228    14.9552 </r>
       <r>    24.1873     0.2566    14.9851 </r>
       <r>    24.3039     0.2261    15.0115 </r>
       <r>    24.4205     0.2498    15.0406 </r>
       <r>    24.5371     0.5005    15.0989 </r>
       <r>    24.6537     0.8010    15.1923 </r>
       <r>    24.7703     0.8025    15.2859 </r>
       <r>    24.8868     0.5648    15.3517 </r>
       <r>    25.0034     0.5319    15.4137 </r>
       <r>    25.1200     0.6407    15.4884 </r>
       <r>    25.2366     0.6579    15.5651 </r>
       <r>    25.3532     0.5360    15.6276 </r>
       <r>    25.4697     0.3525    15.6687 </r>
       <r>    25.5863     0.3018    15.7039 </r>
       <r>    25.7029     0.2873    15.7374 </r>
       <r>    25.8195     0.4320    15.7878 </r>
       <r>    25.9361     0.7742    15.8780 </r>
       <r>    26.0527     0.8570    15.9779 </r>
       <r>    26.1692     0.5068    16.0370 </r>
       <r>    26.2858     0.1629    16.0560 </r>
       <r>    26.4024     0.1693    16.0757 </r>
       <r>    26.5190     0.3346    16.1148 </r>
       <r>    26.6356     0.4533    16.1676 </r>
       <r>    26.7522     0.6649    16.2451 </r>
       <r>    26.8687     0.8373    16.3427 </r>
       <r>    26.9853     0.6928    16.4235 </r>
       <r>    27.1019     0.4871    16.4803 </r>
       <r>    27.2185     0.4534    16.5331 </r>
       <r>    27.3351     0.5589    16.5983 </r>
       <r>    27.4517     0.6914    16.6789 </r>
       <r>    27.5682     0.6754    16.7576 </r>
       <r>    27.6848     0.4717    16.8126 </r>
       <r>    27.8014     0.3149    16.8493 </r>
       <r>    27.9180     0.5034    16.9080 </r>
       <r>    28.0346     0.7536    16.9959 </r>
       <r>    28.1511     0.5967    17.0655 </r>
       <r>    28.2677     0.3104    17.1016 </r>
       <r>    28.3843     0.3054    17.1372 </r>
       <r>    28.5009     0.3853    17.1822 </r>
       <r>    28.6175     0.3434    17.2222 </r>
       <r>    28.7341     0.3108    17.2584 </r>
       <r>    28.8506     0.3576    17.3001 </r>
       <r>    28.9672     0.4463    17.3522 </r>
       <r>    29.0838     0.4605    17.4058 </r>
       <r>    29.2004     0.2972    17.4405 </r>
       <r>    29.3170     0.1423    17.4571 </r>
       <r>    29.4336     0.0961    17.4683 </r>
       <r>    29.5501     0.1366    17.4842 </r>
       <r>    29.6667     0.1559    17.5024 </r>
       <r>    29.7833     0.1017    17.5143 </r>
       <r>    29.8999     0.2586    17.5444 </r>
       <r>    30.0165     0.5135    17.6043 </r>
       <r>    30.1331     0.4235    17.6536 </r>
       <r>    30.2496     0.2880    17.6872 </r>
       <r>    30.3662     0.3064    17.7229 </r>
       <r>    30.4828     0.2312    17.7499 </r>
       <r>    30.5994     0.1350    17.7656 </r>
       <r>    30.7160     0.1047    17.7778 </r>
       <r>    30.8325     0.0971    17.7892 </r>
       <r>    30.9491     0.0488    17.7948 </r>
       <r>    31.0657     0.0245    17.7977 </r>
       <r>    31.1823     0.1402    17.8140 </r>
       <r>    31.2989     0.2353    17.8415 </r>
       <r>    31.4155     0.1591    17.8600 </r>
       <r>    31.5320     0.1597    17.8786 </r>
       <r>    31.6486     0.2759    17.9108 </r>
       <r>    31.7652     0.2936    17.9450 </r>
       <r>    31.8818     0.2038    17.9688 </r>
       <r>    31.9984     0.0756    17.9776 </r>
       <r>    32.1150    -0.0007    17.9775 </r>
       <r>    32.2315     0.0014    17.9777 </r>
       <r>    32.3481     0.0265    17.9808 </r>
       <r>    32.4647     0.0252    17.9837 </r>
       <r>    32.5813     0.0056    17.9844 </r>
       <r>    32.6979     0.0067    17.9852 </r>
       <r>    32.8145     0.0257    17.9882 </r>
       <r>    32.9310     0.0267    17.9913 </r>
       <r>    33.0476     0.0192    17.9935 </r>
       <r>    33.1642     0.0284    17.9968 </r>
       <r>    33.2808     0.0241    17.9996 </r>
       <r>    33.3974     0.0056    18.0003 </r>
       <r>    33.5139    -0.0015    18.0001 </r>
       <r>    33.6305    -0.0008    18.0000 </r>
       <r>    33.7471    -0.0001    18.0000 </r>
       <r>    33.8637     0.0000    18.0000 </r>
       <r>    33.9803     0.0000    18.0000 </r>
       <r>    34.0969     0.0000    18.0000 </r>
       <r>    34.2134     0.0000    18.0000 </r>
       <r>    34.3300     0.0000    18.0000 </r>
       <r>    34.4466     0.0000    18.0000 </r>
       <r>    34.5632     0.0000    18.0000 </r>
       <r>    34.6798     0.0000    18.0000 </r>
       <r>    34.7964     0.0000    18.0000 </r>
       <r>    34.9129     0.0000    18.0000 </r>
       <r>    35.0295     0.0000    18.0000 </r>
       <r>    35.1461     0.0000    18.0000 </r>
      </set>
     </set>
    </array>
   </total>
  </dos>
 </calculation>
 <structure name="finalpos" >
  <crystal>
   <varray name="basis" >
    <v>       2.71854273       0.00000000       0.00000000 </v>
    <v>       1.35927137       2.35432707       0.00000000 </v>
    <v>       1.35927137       0.78477569       2.21968084 </v>
   </varray>
   <i name="volume">     14.20670929 </i>
   <varray name="rec_basis" >
    <v>       0.36784414      -0.21237491      -0.15017174 </v>
    <v>       0.00000000       0.42474982      -0.15017174 </v>
    <v>       0.00000000       0.00000000       0.45051522 </v>
   </varray>
  </crystal>
  <varray name="positions" >
   <v>       0.00000000       0.00000000       0.00000000 </v>
  </varray>
 </structure>
</modeling>
