 vasp.5.3.5 31Mar14 (build Jan 09 2015 16:57:47) complex                        
  
 POSCAR found :  1 types and       1 ions
 LDA part: xc-table for Pade appr. of Perdew
 POSCAR found :  1 types and       1 ions
 POSCAR, INCAR and KPOINTS ok, starting setup
 WARNING: small aliasing (wrap around) errors must be expected
 FFT: planning ...
 WAVECAR not read
 entering main loop
       N       E                     dE             d eps       ncg     rms          rms(c)
DAV:   1     0.273918936221E+02    0.27392E+02   -0.47034E+03  1264   0.806E+02
DAV:   2    -0.248067983550E+01   -0.29873E+02   -0.28704E+02  1096   0.164E+02
DAV:   3    -0.267009348002E+01   -0.18941E+00   -0.18939E+00  1280   0.154E+01
DAV:   4    -0.267042604989E+01   -0.33257E-03   -0.33257E-03  1180   0.587E-01
DAV:   5    -0.267042795294E+01   -0.19030E-05   -0.19033E-05  1070   0.412E-02    0.884E+00
DAV:   6    -0.239913078626E+01    0.27130E+00   -0.10080E+00  1097   0.114E+01    0.525E+00
DAV:   7    -0.237780341653E+01    0.21327E-01   -0.38439E-02  1165   0.219E+00    0.249E+00
DAV:   8    -0.237304915507E+01    0.47543E-02   -0.11129E-03  1131   0.352E-01    0.138E-01
DAV:   9    -0.237305395280E+01   -0.47977E-05   -0.48838E-06   578   0.250E-02
   1 F= -.23730540E+01 E0= -.23731704E+01  d E =-.237305E+01
 curvature:   0.00 expect dE= 0.000E+00 dE for cont linesearch  0.000E+00
 trial: gam= 0.00000 g(F)=  0.751E-61 g(S)=  0.000E+00 ort = 0.000E+00 (trialstep = 0.100E+01)
 search vector abs. value=  0.100E-09
 reached required accuracy - stopping structural energy minimisation
 writing wavefunctions
