unknown system                          
           1
     2.718543    0.000000    0.000000
     1.359271    2.354327    0.000000
     1.359271    0.784776    2.219681
   Ag
   1
Direct configuration=     1
   0.00000000  0.00000000  0.00000000
