unknown system                          
   1.00000000000000     
     2.602860    0.000000    0.000000
     1.301430    2.254143    0.000000
     1.301430    0.751381    2.125226
   Ag
     1
Direct
  0.000000  0.000000  0.000000
 
   24   24   24
  95.809      92.282      82.747      69.671      55.559      42.047      29.997      20.032      12.709      8.1846    
  5.9151      4.8578      4.5138      4.8578      5.9151      8.1846      12.709      20.032      29.997      42.047    
  55.559      69.671      82.747      92.282      92.282      85.762      74.537      61.122      47.546      34.981    
  24.140      15.646      9.9067      6.7274      5.2349      4.5567      4.5563      5.2346      6.7279      9.9071    
  15.646      24.139      34.982      47.546      61.122      74.537      85.763      92.282      82.746      74.536    
  63.126      50.580      38.345      27.321      18.225      11.628      7.6295      5.6385      4.6705      4.3564    
  4.6705      5.6385      7.6294      11.628      18.225      27.321      38.345      50.580      63.126      74.536    
  82.746      85.763      69.671      61.122      50.580      39.535      29.058      19.988      13.018      8.4716    
  6.0318      4.8222      4.2527      4.2527      4.8222      6.0316      8.4716      13.018      19.988      29.058    
  39.535      50.580      61.122      69.671      74.537      74.537      55.560      47.546      38.345      29.058    
  20.613      13.794      9.0727      6.3582      4.9690      4.2197      3.9817      4.2197      4.9690      6.3582    
  9.0727      13.794      20.613      29.058      38.345      47.546      55.560      61.122      63.127      61.122    
  42.047      34.981      27.321      19.988      13.794      9.2904      6.5458      5.0739      4.2228      3.8285    
  3.8290      4.2233      5.0736      6.5454      9.2907      13.795      19.988      27.321      34.982      42.047    
  47.546      50.580      50.580      47.546      29.996      24.139      18.225      13.018      9.0726      6.5453    
  5.1114      4.2334      3.7568      3.6091      3.7568      4.2335      5.1115      6.5453      9.0726      13.018    
  18.225      24.139      29.996      34.982      38.345      39.534      38.345      34.982      20.033      15.646    
  11.627      8.4718      6.3584      5.0735      4.2329      3.7368      3.5150      3.5144      3.7363      4.2333    
  5.0741      6.3580      8.4714      11.628      15.646      20.032      24.139      27.321      29.058      29.058    
  27.321      24.140      12.709      9.9069      7.6292      6.0317      4.9694      4.2229      3.7566      3.5147    
  3.4416      3.5147      3.7566      4.2230      4.9695      6.0318      7.6293      9.9069      12.709      15.646    
  18.225      19.988      20.614      19.988      18.225      15.646      8.1847      6.7278      5.6386      4.8221    
  4.2198      3.8288      3.6094      3.5146      3.5148      3.6097      3.8286      4.2194      4.8223      5.6388    
  6.7276      8.1846      9.9070      11.628      13.018      13.794      13.794      13.018      11.627      9.9067    
  5.9148      5.2348      4.6705      4.2526      3.9816      3.8288      3.7568      3.7364      3.7568      3.8288    
  3.9815      4.2526      4.6704      5.2348      5.9148      6.7277      7.6295      8.4717      9.0726      9.2904    
  9.0725      8.4716      7.6294      6.7276      4.8578      4.5564      4.3562      4.2527      4.2197      4.2231    
  4.2332      4.2331      4.2230      4.2195      4.2526      4.3563      4.5565      4.8577      5.2347      5.6387    
  6.0318      6.3583      6.5456      6.5456      6.3582      6.0317      5.6387      5.2348      4.5142      4.5565    
  4.6704      4.8221      4.9692      5.0738      5.1114      5.0738      4.9693      4.8222      4.6704      4.5565    
  4.5142      4.5565      4.6704      4.8222      4.9693      5.0738      5.1114      5.0738      4.9692      4.8221    
  4.6704      4.5565      4.8578      5.2348      5.6387      6.0317      6.3582      6.5456      6.5456      6.3583    
  6.0318      5.6387      5.2347      4.8577      4.5565      4.3563      4.2526      4.2195      4.2230      4.2331    
  4.2332      4.2231      4.2197      4.2527      4.3562      4.5564      5.9148      6.7276      7.6294      8.4716    
  9.0725      9.2904      9.0726      8.4717      7.6295      6.7277      5.9148      5.2348      4.6704      4.2526    
  3.9815      3.8288      3.7568      3.7364      3.7568      3.8288      3.9816      4.2526      4.6705      5.2348    
  8.1847      9.9067      11.627      13.018      13.794      13.794      13.018      11.628      9.9070      8.1846    
  6.7276      5.6388      4.8223      4.2194      3.8286      3.6097      3.5148      3.5146      3.6094      3.8288    
  4.2198      4.8221      5.6386      6.7278      12.709      15.646      18.225      19.988      20.614      19.988    
  18.225      15.646      12.709      9.9069      7.6293      6.0318      4.9695      4.2230      3.7566      3.5147    
  3.4416      3.5147      3.7566      4.2229      4.9694      6.0317      7.6292      9.9069      20.033      24.140    
  27.321      29.058      29.058      27.321      24.139      20.032      15.646      11.628      8.4714      6.3580    
  5.0741      4.2333      3.7363      3.5144      3.5150      3.7368      4.2329      5.0735      6.3584      8.4718    
  11.627      15.646      29.996      34.982      38.345      39.534      38.345      34.982      29.996      24.139    
  18.225      13.018      9.0726      6.5453      5.1115      4.2335      3.7568      3.6091      3.7568      4.2334    
  5.1114      6.5453      9.0726      13.018      18.225      24.139      42.047      47.546      50.580      50.580    
  47.546      42.047      34.982      27.321      19.988      13.795      9.2907      6.5454      5.0736      4.2233    
  3.8290      3.8285      4.2228      5.0739      6.5458      9.2904      13.794      19.988      27.321      34.981    
  55.560      61.122      63.127      61.122      55.560      47.546      38.345      29.058      20.613      13.794    
  9.0727      6.3582      4.9690      4.2197      3.9817      4.2197      4.9690      6.3582      9.0727      13.794    
  20.613      29.058      38.345      47.546      69.671      74.537      74.537      69.671      61.122      50.580    
  39.535      29.058      19.988      13.018      8.4716      6.0316      4.8222      4.2527      4.2527      4.8222    
  6.0318      8.4716      13.018      19.988      29.058      39.535      50.580      61.122      82.746      85.763    
  82.746      74.536      63.126      50.580      38.345      27.321      18.225      11.628      7.6294      5.6385    
  4.6705      4.3564      4.6705      5.6385      7.6295      11.628      18.225      27.321      38.345      50.580    
  63.126      74.536      92.282      92.282      85.763      74.537      61.122      47.546      34.982      24.139    
  15.646      9.9071      6.7279      5.2346      4.5563      4.5567      5.2349      6.7274      9.9067      15.646    
  24.140      34.981      47.546      61.122      74.537      85.762      92.282      85.762      74.537      61.122    
  47.546      34.981      24.140      15.646      9.9067      6.7274      5.2349      4.5567      4.5563      5.2346    
  6.7279      9.9071      15.646      24.139      34.982      47.546      61.122      74.537      85.763      92.282    
  85.763      77.124      65.180      52.135      39.498      28.156      18.793      11.971      7.8090      5.7322    
  4.7367      4.4133      4.7366      5.7322      7.8092      11.971      18.793      28.156      39.498      52.135    
  65.180      77.125      85.763      88.945      74.537      65.179      53.771      41.963      30.856      21.249    
  13.817      8.9108      6.2516      4.9610      4.3577      4.3578      4.9611      6.2515      8.9108      13.818    
  21.250      30.856      41.963      53.772      65.180      74.537      79.901      79.901      61.122      52.135    
  41.963      31.808      22.594      15.094      9.8172      6.7334      5.1837      4.3682      4.1073      4.3683    
  5.1836      6.7332      9.8171      15.094      22.594      31.808      41.964      52.135      61.122      67.438    
  69.730      67.438      47.546      39.498      30.856      22.594      15.549      10.328      7.0797      5.3602    
  4.4104      3.9651      3.9655      4.4108      5.3599      7.0794      10.329      15.549      22.594      30.856    
  39.498      47.546      53.891      57.426      57.426      53.891      34.981      28.156      21.250      15.094    
  10.328      7.2055      5.4581      4.4518      3.8980      3.7253      3.8981      4.4519      5.4582      7.2056    
  10.328      15.094      21.249      28.156      34.982      40.821      44.791      46.203      44.791      40.821    
  24.140      18.793      13.817      9.8174      7.0799      5.4579      4.4676      3.8740      3.6061      3.6057    
  3.8735      4.4681      5.4585      7.0794      9.8169      13.818      18.793      24.139      29.110      32.959    
  35.064      35.064      32.959      29.111      15.646      11.970      8.9105      6.7334      5.3604      4.4515    
  3.8735      3.5705      3.4784      3.5705      3.8734      4.4515      5.3604      6.7335      8.9106      11.971    
  15.646      19.426      22.709      24.941      25.732      24.941      22.709      19.427      9.9070      7.8092    
  6.2514      5.1836      4.4107      3.8982      3.6058      3.4779      3.4782      3.6061      3.8979      4.4104    
  5.1839      6.2518      7.8090      9.9068      12.338      14.720      16.619      17.671      17.672      16.619    
  14.720      12.338      6.7276      5.7325      4.9612      4.3681      3.9653      3.7257      3.6059      3.5704    
  3.6059      3.7258      3.9653      4.3680      4.9610      5.7325      6.7277      7.9880      9.3839      10.669    
  11.575      11.901      11.575      10.669      9.3838      7.9878      5.2347      4.7367      4.3578      4.1073    
  3.9653      3.8981      3.8738      3.8737      3.8980      3.9653      4.1073      4.3577      4.7366      5.2347    
  5.8134      6.4643      7.1324      7.6926      8.0134      8.0133      7.6925      7.1323      6.4643      5.8133    
  4.5565      4.4131      4.3576      4.3682      4.4107      4.4516      4.4679      4.4515      4.4106      4.3682    
  4.3577      4.4131      4.5565      4.7865      5.0749      5.3740      5.6376      5.8243      5.8924      5.8243    
  5.6375      5.3739      5.0750      4.7866      4.5565      4.7367      4.9610      5.1836      5.3600      5.4582    
  5.4582      5.3600      5.1837      4.9611      4.7366      4.5564      4.4527      4.4336      4.4822      4.5653    
  4.6460      4.6943      4.6942      4.6459      4.5654      4.4822      4.4336      4.4528      5.2348      5.7324    
  6.2516      6.7333      7.0795      7.2059      7.0797      6.7335      6.2516      5.7324      5.2347      4.7865    
  4.4335      4.1948      4.0590      3.9970      3.9761      3.9722      3.9762      3.9971      4.0590      4.1947    
  4.4336      4.7865      6.7277      7.8091      8.9108      9.8171      10.328      10.328      9.8171      8.9110    
  7.8092      6.7276      5.8134      5.0750      4.4823      4.0589      3.7930      3.6484      3.5875      3.5874    
  3.6484      3.7932      4.0591      4.4822      5.0749      5.8134      9.9070      11.971      13.817      15.094    
  15.549      15.094      13.817      11.971      9.9072      7.9881      6.4642      5.3740      4.5656      3.9970    
  3.6482      3.4694      3.4155      3.4693      3.6482      3.9970      4.5656      5.3740      6.4641      7.9880    
  15.646      18.793      21.249      22.594      22.594      21.250      18.793      15.646      12.338      9.3841    
  7.1322      5.6373      4.6461      3.9763      3.5872      3.4151      3.4156      3.5876      3.9759      4.6457    
  5.6376      7.1326      9.3837      12.338      24.139      28.156      30.856      31.808      30.856      28.157    
  24.139      19.426      14.720      10.669      7.6926      5.8240      4.6942      3.9725      3.5874      3.4689    
  3.5874      3.9725      4.6942      5.8239      7.6924      10.669      14.720      19.426      34.981      39.498    
  41.964      41.963      39.498      34.982      29.111      22.709      16.619      11.575      8.0136      5.8922    
  4.6940      3.9765      3.6487      3.6481      3.9759      4.6944      5.8927      8.0131      11.574      16.619    
  22.710      29.110      47.546      52.135      53.772      52.135      47.546      40.821      32.959      24.941    
  17.671      11.901      8.0136      5.8243      4.6457      3.9971      3.7934      3.9970      4.6456      5.8242    
  8.0136      11.901      17.671      24.941      32.959      40.821      61.122      65.180      65.180      61.122    
  53.891      44.791      35.064      25.732      17.671      11.575      7.6926      5.6375      4.5653      4.0589    
  4.0592      4.5655      5.6373      7.6923      11.575      17.672      25.732      35.064      44.791      53.891    
  74.537      77.125      74.537      67.438      57.426      46.203      35.064      24.941      16.619      10.669    
  7.1323      5.3739      4.4822      4.1948      4.4823      5.3740      7.1324      10.669      16.619      24.941    
  35.064      46.203      57.426      67.438      85.763      85.763      79.901      69.730      57.426      44.791    
  32.959      22.710      14.720      9.3839      6.4644      5.0749      4.4335      4.4337      5.0751      6.4642    
  9.3838      14.720      22.710      32.959      44.791      57.426      69.731      79.901      92.282      88.945    
  79.902      67.438      53.890      40.821      29.111      19.427      12.338      7.9880      5.8136      4.7866    
  4.4525      4.7866      5.8136      7.9880      12.338      19.427      29.111      40.821      53.890      67.438    
  79.902      88.945      82.746      74.536      63.126      50.580      38.345      27.321      18.225      11.628    
  7.6295      5.6385      4.6705      4.3564      4.6705      5.6385      7.6294      11.628      18.225      27.321    
  38.345      50.580      63.126      74.536      82.746      85.763      74.537      65.179      53.771      41.963    
  30.856      21.249      13.817      8.9108      6.2516      4.9610      4.3577      4.3578      4.9611      6.2515    
  8.9108      13.818      21.250      30.856      41.963      53.772      65.180      74.537      79.901      79.901    
  63.126      53.772      43.242      32.774      23.291      15.556      10.085      6.8689      5.2588      4.4205    
  4.1515      4.4205      5.2588      6.8689      10.085      15.556      23.291      32.774      43.242      53.772    
  63.126      69.731      72.133      69.730      50.580      41.963      32.775      24.012      16.515      10.910    
  7.3820      5.5153      4.5118      4.0389      4.0392      4.5121      5.5151      7.3817      10.910      16.515    
  24.012      32.774      41.963      50.580      57.426      61.264      61.264      57.426      38.345      30.856    
  23.291      16.515      11.206      7.6739      5.6929      4.5970      3.9918      3.8021      3.9918      4.5970    
  5.6929      7.6739      11.206      16.515      23.291      30.856      38.345      44.791      49.204      50.780    
  49.204      44.791      27.321      21.249      15.556      10.910      7.6744      5.7566      4.6463      3.9790    
  3.6756      3.6751      3.9785      4.6468      5.7572      7.6740      10.910      15.556      21.250      27.321    
  32.959      37.337      39.739      39.739      37.336      32.959      18.225      13.818      10.085      7.3819    
  5.6932      4.6465      3.9767      3.6224      3.5142      3.6225      3.9768      4.6466      5.6932      7.3820    
  10.085      13.818      18.225      22.709      26.584      29.214      30.147      29.214      26.584      22.710    
  11.628      8.9109      6.8687      5.5151      4.5969      3.9789      3.6223      3.4653      3.4657      3.6226    
  3.9785      4.5965      5.5155      6.8692      8.9107      11.627      14.720      17.709      20.072      21.377    
  21.377      20.073      17.709      14.720      7.6295      6.2517      5.2588      4.5117      3.9918      3.6755    
  3.5139      3.4653      3.5139      3.6755      3.9918      4.5117      5.2588      6.2518      7.6295      9.3838    
  11.300      13.038      14.253      14.689      14.253      13.038      11.300      9.3838      5.6387      4.9612    
  4.4205      4.0390      3.8023      3.6754      3.6225      3.6224      3.6753      3.8024      4.0391      4.4204    
  4.9610      5.6387      6.4644      7.4435      8.4521      9.2912      9.7683      9.7682      9.2910      8.4521    
  7.4435      6.4642      4.6705      4.3578      4.1515      4.0391      3.9918      3.9787      3.9771      3.9787    
  3.9918      4.0390      4.1515      4.3577      4.6704      5.0750      5.5281      5.9950      6.4281      6.7408    
  6.8553      6.7408      6.4280      5.9949      5.5281      5.0749      4.3562      4.3577      4.4204      4.5120    
  4.5968      4.6466      4.6465      4.5966      4.5120      4.4205      4.3577      4.3562      4.4336      4.5840    
  4.7791      4.9769      5.1351      5.2227      5.2226      5.1351      4.9770      4.7792      4.5840      4.4335    
  4.6705      4.9610      5.2588      5.5152      5.6929      5.7570      5.6929      5.5152      5.2588      4.9611    
  4.6704      4.4335      4.2783      4.2071      4.2005      4.2277      4.2583      4.2710      4.2583      4.2277    
  4.2006      4.2072      4.2783      4.4336      5.6387      6.2515      6.8689      7.3817      7.6741      7.6742    
  7.3820      6.8691      6.2516      5.6386      5.0749      4.5840      4.2071      3.9534      3.8050      3.7310    
  3.7024      3.7024      3.7310      3.8051      3.9535      4.2070      4.5840      5.0751      7.6295      8.9109    
  10.085      10.910      11.207      10.910      10.085      8.9109      7.6296      6.4643      5.5280      4.7791    
  4.2006      3.8050      3.5671      3.4467      3.4108      3.4467      3.5671      3.8051      4.2006      4.7791    
  5.5280      6.4642      11.628      13.818      15.556      16.515      16.515      15.556      13.817      11.627    
  9.3841      7.4437      5.9949      4.9767      4.2279      3.7311      3.4465      3.3215      3.3218      3.4469    
  3.7308      4.2276      4.9771      5.9951      7.4432      9.3836      18.225      21.250      23.291      24.012    
  23.291      21.250      18.225      14.720      11.300      8.4525      6.4281      5.1348      4.2583      3.7027    
  3.4107      3.3214      3.4107      3.7027      4.2583      5.1348      6.4280      8.4524      11.300      14.720    
  27.321      30.856      32.775      32.774      30.856      27.321      22.710      17.708      13.038      9.2914    
  6.7411      5.2224      4.2708      3.7026      3.4470      3.4465      3.7021      4.2712      5.2228      6.7405    
  9.2908      13.039      17.709      22.709      38.344      41.963      43.242      41.963      38.344      32.959    
  26.584      20.072      14.253      9.7683      6.8556      5.2226      4.2580      3.7310      3.5675      3.7310    
  4.2580      5.2226      6.8556      9.7683      14.253      20.072      26.584      32.959      50.580      53.772    
  53.772      50.580      44.791      37.337      29.215      21.377      14.689      9.7681      6.7410      5.1353    
  4.2276      3.8049      3.8053      4.2280      5.1349      6.7406      9.7685      14.689      21.377      29.214    
  37.337      44.791      63.126      65.180      63.126      57.426      49.204      39.739      30.147      21.377    
  14.253      9.2909      6.4280      4.9770      4.2006      3.9533      4.2005      4.9770      6.4280      9.2909    
  14.253      21.377      30.147      39.739      49.204      57.426      74.537      74.537      69.731      61.264    
  50.781      39.739      29.214      20.072      13.038      8.4520      5.9950      4.7792      4.2071      4.2071    
  4.7791      5.9950      8.4521      13.038      20.072      29.214      39.739      50.781      61.264      69.730    
  82.746      79.901      72.133      61.264      49.204      37.337      26.584      17.709      11.299      7.4434    
  5.5282      4.5840      4.2782      4.5840      5.5282      7.4434      11.299      17.709      26.584      37.337    
  49.204      61.264      72.133      79.901      85.763      79.901      69.731      57.426      44.791      32.959    
  22.710      14.720      9.3838      6.4642      5.0751      4.4337      4.4335      5.0749      6.4644      9.3839    
  14.720      22.710      32.959      44.791      57.426      69.730      79.901      85.763      69.671      61.122    
  50.580      39.535      29.058      19.988      13.018      8.4716      6.0318      4.8222      4.2527      4.2527    
  4.8222      6.0316      8.4716      13.018      19.988      29.058      39.535      50.580      61.122      69.671    
  74.537      74.537      61.122      52.135      41.963      31.808      22.594      15.094      9.8172      6.7334    
  5.1837      4.3682      4.1073      4.3683      5.1836      6.7332      9.8171      15.094      22.594      31.808    
  41.964      52.135      61.122      67.438      69.730      67.438      50.580      41.963      32.775      24.012    
  16.515      10.910      7.3820      5.5153      4.5118      4.0389      4.0392      4.5121      5.5151      7.3817    
  10.910      16.515      24.012      32.774      41.963      50.580      57.426      61.264      61.264      57.426    
  39.535      31.808      24.012      17.020      11.522      7.8437      5.7766      4.6478      4.0246      3.8290    
  4.0247      4.6478      5.7766      7.8436      11.521      17.020      24.012      31.808      39.534      46.203    
  50.780      52.418      50.781      46.203      29.058      22.594      16.515      11.522      8.0116      5.9230    
  4.7427      4.0357      3.7129      3.7125      4.0353      4.7431      5.9235      8.0112      11.521      16.515    
  22.594      29.058      35.064      39.739      42.312      42.311      39.739      35.064      19.988      15.094    
  10.910      7.8439      5.9235      4.7769      4.0472      3.6586      3.5395      3.6586      4.0472      4.7770    
  5.9236      7.8439      10.910      15.094      19.988      24.941      29.214      32.117      33.147      32.117    
  29.214      24.941      13.018      9.8173      7.3817      5.7764      4.7431      4.0476      3.6432      3.4643    
  3.4647      3.6436      4.0473      4.7427      5.7768      7.3821      9.8169      13.018      16.619      20.072    
  22.792      24.292      24.292      22.793      20.072      16.619      8.4716      6.7336      5.5152      4.6474    
  4.0355      3.6588      3.4645      3.4057      3.4645      3.6588      4.0354      4.6473      5.5153      6.7337    
  8.4717      10.669      13.038      15.169      16.649      17.178      16.649      15.169      13.038      10.669    
  6.0317      5.1838      4.5120      4.0245      3.7127      3.5393      3.4646      3.4644      3.5391      3.7128    
  4.0247      4.5118      5.1836      6.0318      7.1325      8.4521      9.8016      10.914      11.544      11.544    
  10.914      9.8016      8.4522      7.1323      4.8222      4.3682      4.0390      3.8292      3.7127      3.6586    
  3.6434      3.6586      3.7127      3.8292      4.0391      4.3682      4.8221      5.3739      5.9950      6.6715    
  7.3083      7.7682      7.9362      7.7680      7.3081      6.6713      5.9950      5.3740      4.2527      4.1073    
  4.0391      4.0246      4.0355      4.0475      4.0475      4.0354      4.0246      4.0391      4.1072      4.2526    
  4.4822      4.7791      5.1038      5.4075      5.6512      5.7896      5.7896      5.6511      5.4075      5.1038    
  4.7791      4.4822      4.2526      4.3683      4.5120      4.6476      4.7429      4.7771      4.7429      4.6475    
  4.5119      4.3683      4.2527      4.1947      4.2071      4.2809      4.3896      4.4992      4.5787      4.6077    
  4.5788      4.4992      4.3896      4.2809      4.2071      4.1947      4.8221      5.1837      5.5152      5.7765    
  5.9233      5.9233      5.7766      5.5152      5.1837      4.8222      4.4822      4.2071      4.0176      3.9105    
  3.8648      3.8539      3.8549      3.8549      3.8540      3.8648      3.9105      4.0177      4.2071      4.4822    
  6.0317      6.7333      7.3817      7.8438      8.0114      7.8439      7.3819      6.7334      6.0317      5.3738    
  4.7790      4.2808      3.9105      3.6658      3.5232      3.4530      3.4324      3.4530      3.5232      3.6658    
  3.9105      4.2808      4.7791      5.3740      8.4717      9.8171      10.910      11.521      11.521      10.910    
  9.8170      8.4716      7.1325      5.9951      5.1038      4.3895      3.8649      3.5233      3.3293      3.2443    
  3.2445      3.3296      3.5232      3.8647      4.3896      5.1039      5.9949      7.1322      13.018      15.094    
  16.515      17.019      16.515      15.094      13.018      10.669      8.4522      6.6717      5.4076      4.4990    
  3.8539      3.4532      3.2444      3.1807      3.2444      3.4533      3.8540      4.4990      5.4075      6.6716    
  8.4520      10.668      19.988      22.594      24.012      24.012      22.594      19.988      16.619      13.038    
  9.8014      7.3086      5.6514      4.5785      3.8547      3.4326      3.2447      3.2442      3.4321      3.8551    
  4.5790      5.6510      7.3081      9.8018      13.039      16.619      29.058      31.808      32.775      31.808    
  29.057      24.941      20.073      15.169      10.914      7.7682      5.7899      4.6076      3.8546      3.4530    
  3.3298      3.4530      3.8546      4.6075      5.7898      7.7682      10.914      15.169      20.073      24.941    
  39.535      41.963      41.964      39.535      35.064      29.214      22.793      16.649      11.543      7.9359    
  5.7898      4.5790      3.8537      3.5230      3.5235      3.8542      4.5785      5.7893      7.9364      11.544    
  16.649      22.792      29.215      35.064      50.580      52.135      50.580      46.203      39.739      32.117    
  24.292      17.179      11.544      7.7678      5.6511      4.4995      3.8648      3.6656      3.8648      4.4995    
  5.6512      7.7679      11.544      17.179      24.292      32.117      39.739      46.204      61.122      61.122    
  57.426      50.781      42.312      33.147      24.292      16.649      10.914      7.3080      5.4073      4.3897    
  3.9106      3.9103      4.3894      5.4076      7.3084      10.914      16.649      24.292      33.147      42.311    
  50.780      57.426      69.671      67.438      61.264      52.418      42.312      32.117      22.792      15.169    
  9.8016      6.6713      5.1037      4.2808      4.0178      4.2808      5.1037      6.6713      9.8016      15.169    
  22.792      32.117      42.312      52.418      61.264      67.438      74.537      69.730      61.264      50.781    
  39.739      29.214      20.072      13.038      8.4521      5.9950      4.7791      4.2071      4.2071      4.7792    
  5.9950      8.4520      13.038      20.072      29.214      39.739      50.781      61.264      69.731      74.537    
  74.537      67.438      57.426      46.203      35.064      24.941      16.619      10.669      7.1324      5.3740    
  4.4823      4.1948      4.4822      5.3739      7.1323      10.669      16.619      24.941      35.064      46.203    
  57.426      67.438      74.537      77.125      55.560      47.546      38.345      29.058      20.613      13.794    
  9.0727      6.3582      4.9690      4.2197      3.9817      4.2197      4.9690      6.3582      9.0727      13.794    
  20.613      29.058      38.345      47.546      55.560      61.122      63.127      61.122      47.546      39.498    
  30.856      22.594      15.549      10.328      7.0797      5.3602      4.4104      3.9651      3.9655      4.4108    
  5.3599      7.0794      10.329      15.549      22.594      30.856      39.498      47.546      53.891      57.426    
  57.426      53.891      38.345      30.856      23.291      16.515      11.206      7.6739      5.6929      4.5970    
  3.9918      3.8021      3.9918      4.5970      5.6929      7.6739      11.206      16.515      23.291      30.856    
  38.345      44.791      49.204      50.780      49.204      44.791      29.058      22.594      16.515      11.522    
  8.0116      5.9230      4.7427      4.0357      3.7129      3.7125      4.0353      4.7431      5.9235      8.0112    
  11.521      16.515      22.594      29.058      35.064      39.739      42.312      42.311      39.739      35.064    
  20.614      15.549      11.206      8.0114      6.0065      4.8227      4.0721      3.6714      3.5486      3.6714    
  4.0721      4.8228      6.0065      8.0114      11.206      15.549      20.614      25.732      30.146      33.147    
  34.212      33.147      30.146      25.732      13.795      10.329      7.6740      5.9230      4.8229      4.0868    
  3.6567      3.4661      3.4665      3.6571      4.0864      4.8226      5.9235      7.6745      10.328      13.794    
  17.672      21.377      24.291      25.897      25.898      24.292      21.377      17.671      9.0726      7.0798    