unknown system                          
   1.00000000000000     
     2.602860    0.000000    0.000000
     1.301430    2.254143    0.000000
     1.301430    0.751381    2.125226
   Ag
     1
Direct
  0.000000  0.000000  0.000000
 
   24   24   24
 0.95809429568E+02 0.92282026129E+02 0.82746641212E+02 0.69671390632E+02 0.55559324597E+02
 0.42046815647E+02 0.29996752900E+02 0.20032398563E+02 0.12708615355E+02 0.81846150887E+01
 0.59151323274E+01 0.48577747270E+01 0.45138473419E+01 0.48577747270E+01 0.59151323274E+01
 0.81846150887E+01 0.12708615355E+02 0.20032398563E+02 0.29996752900E+02 0.42046815647E+02
 0.55559324597E+02 0.69671390632E+02 0.82746641212E+02 0.92282026129E+02 0.92281801021E+02
 0.85762413426E+02 0.74536760012E+02 0.61122180381E+02 0.47545956120E+02 0.34981229968E+02
 0.24139580102E+02 0.15646042508E+02 0.99066541873E+01 0.67274368836E+01 0.52349453319E+01
 0.45566714717E+01 0.45562940648E+01 0.52346008202E+01 0.67278819333E+01 0.99070544906E+01
 0.15645636511E+02 0.24139213939E+02 0.34981634511E+02 0.47546242102E+02 0.61121674672E+02
 0.74536507110E+02 0.85763176266E+02 0.92282401632E+02 0.82746276945E+02 0.74536341059E+02
 0.63126288966E+02 0.50580174783E+02 0.38344661100E+02 0.27320836064E+02 0.18225182484E+02
 0.11627674377E+02 0.76294642608E+01 0.56385293524E+01 0.46704711141E+01 0.43563891865E+01
 0.46704584536E+01 0.56385081297E+01 0.76294423372E+01 0.11627661609E+02 0.18225188634E+02
 0.27320867690E+02 0.38344719423E+02 0.50580251695E+02 0.63126371155E+02 0.74536410002E+02
 0.82746316100E+02 0.85763145005E+02 0.69671408940E+02 0.61121936965E+02 0.50579962628E+02
 0.39534539846E+02 0.29057804743E+02 0.19987788254E+02 0.13018062225E+02 0.84716104516E+01
 0.60317561638E+01 0.48222297074E+01 0.42526682121E+01 0.42526608066E+01 0.48221672302E+01
 0.60316393231E+01 0.84715508218E+01 0.13018094345E+02 0.19987809756E+02 0.29057821739E+02
 0.39534703149E+02 0.50580221333E+02 0.61121986008E+02 0.69671172119E+02 0.74536585539E+02
 0.74536750526E+02 0.55559548432E+02 0.47546181227E+02 0.38344801532E+02 0.29057786434E+02
 0.20613356697E+02 0.13794390219E+02 0.90726948877E+01 0.63581662961E+01 0.49690440796E+01
 0.42196656522E+01 0.39817463540E+01 0.42196719252E+01 0.49690460060E+01 0.63581508720E+01
 0.90726590348E+01 0.13794346516E+02 0.20613331361E+02 0.29057804313E+02 0.38344871633E+02
 0.47546289429E+02 0.55559657337E+02 0.61121967700E+02 0.63126511587E+02 0.61121899779E+02
 0.42046628548E+02 0.34981267977E+02 0.27321217009E+02 0.19987993661E+02 0.13794203120E+02
 0.92903789630E+01 0.65457995276E+01 0.50739111599E+01 0.42227620139E+01 0.38285356161E+01
 0.38289696213E+01 0.42232685914E+01 0.50736321185E+01 0.65454074905E+01 0.92906667755E+01
 0.13794516698E+02 0.19987588614E+02 0.27320785185E+02 0.34981613544E+02 0.42047142808E+02
 0.47546102330E+02 0.50580015926E+02 0.50580244947E+02 0.47546204093E+02 0.29996388632E+02
 0.24139032791E+02 0.18225182484E+02 0.13018402737E+02 0.90725544553E+01 0.65452902253E+01
 0.51114384495E+01 0.42334491222E+01 0.37568138608E+01 0.36091358293E+01 0.37568429414E+01
 0.42334941815E+01 0.51114810999E+01 0.65453139747E+01 0.90725561823E+01 0.13018388583E+02
 0.18225167194E+02 0.24139029378E+02 0.29996398871E+02 0.34981748649E+02 0.38344731200E+02
 0.39534399254E+02 0.38344719423E+02 0.34981731607E+02 0.20032617708E+02 0.15645598256E+02
 0.11627261386E+02 0.84718112882E+01 0.63583854413E+01 0.50735049159E+01 0.42329077735E+01
 0.37368357478E+01 0.35149642361E+01 0.35144401818E+01 0.37362627345E+01 0.42333425297E+01
 0.50740613053E+01 0.63580487572E+01 0.84714153260E+01 0.11627736801E+02 0.15646071579E+02
 0.20032156774E+02 0.24139132436E+02 0.27321191429E+02 0.29058023458E+02 0.29057620903E+02
 0.27320842391E+02 0.24139658192E+02 0.12709222759E+02 0.99068792948E+01 0.76292211243E+01
 0.60317378552E+01 0.49694276485E+01 0.42229491126E+01 0.37565707243E+01 0.35147450909E+01
 0.34415735964E+01 0.35147379504E+01 0.37565659262E+01 0.42229579203E+01 0.49694586950E+01
 0.60317861740E+01 0.76292730253E+01 0.99069199487E+01 0.12709237920E+02 0.15645852433E+02
 0.18224924057E+02 0.19987775712E+02 0.20613714930E+02 0.19987791447E+02 0.18224945498E+02
 0.15645861618E+02 0.81847201811E+01 0.67277670835E+01 0.56386181063E+01 0.48221429237E+01
 0.42197707446E+01 0.38288278072E+01 0.36093529405E+01 0.35145542346E+01 0.35148430428E+01
 0.36096852088E+01 0.38286183802E+01 0.42194486893E+01 0.48222661442E+01 0.56388322788E+01
 0.67276155592E+01 0.81845948060E+01 0.99070250411E+01 0.11627622749E+02 0.13017961287E+02
 0.13794224507E+02 0.13794451609E+02 0.13018181129E+02 0.11627362671E+02 0.99067242907E+01
 0.59147680596E+01 0.52347759633E+01 0.46704711141E+01 0.42526307819E+01 0.39816059215E+01
 0.38288382614E+01 0.37568429414E+01 0.37364261409E+01 0.37568090626E+01 0.38287792115E+01
 0.39815371957E+01 0.42525718254E+01 0.46704360320E+01 0.52347792730E+01 0.59148072586E+01
 0.67276649128E+01 0.76295161618E+01 0.84716902101E+01 0.90725561823E+01 0.92904239380E+01
 0.90725186024E+01 0.84716248693E+01 0.76294423372E+01 0.67276010870E+01 0.48577822960E+01
 0.45564387953E+01 0.43561877714E+01 0.42526500669E+01 0.42196794942E+01 0.42230739238E+01
 0.42331644091E+01 0.42331309534E+01 0.42229654892E+01 0.42195462127E+01 0.42526199953E+01
 0.43562762138E+01 0.45564746953E+01 0.48576683435E+01 0.52347159652E+01 0.56387347554E+01
 0.60317937429E+01 0.63582603335E+01 0.65456286093E+01 0.65456021581E+01 0.63581584409E+01
 0.60316500628E+01 0.56386944070E+01 0.52348334966E+01 0.45142462874E+01 0.45565191723E+01
 0.46704237759E+01 0.48221489215E+01 0.49692211162E+01 0.50738192172E+01 0.51114464221E+01
 0.50738421600E+01 0.49692502363E+01 0.48221610518E+01 0.46704013543E+01 0.45564671264E+01
 0.45141832017E+01 0.45564671264E+01 0.46704013543E+01 0.48221610518E+01 0.49692502363E+01
 0.50738421600E+01 0.51114464221E+01 0.50738192172E+01 0.49692211162E+01 0.48221489215E+01
 0.46704237759E+01 0.45565191723E+01 0.48577822960E+01 0.52348334966E+01 0.56386944070E+01
 0.60316500628E+01 0.63581584409E+01 0.65456021581E+01 0.65456286093E+01 0.63582603335E+01
 0.60317937429E+01 0.56387347554E+01 0.52347159652E+01 0.48576683435E+01 0.45564746953E+01
 0.43562762138E+01 0.42526199953E+01 0.42195462127E+01 0.42229654892E+01 0.42331309534E+01
 0.42331644091E+01 0.42230739238E+01 0.42196794942E+01 0.42526500669E+01 0.43561877714E+01
 0.45564387953E+01 0.59147680596E+01 0.67276010870E+01 0.76294423372E+01 0.84716248693E+01
 0.90725186024E+01 0.92904239380E+01 0.90725561823E+01 0.84716902101E+01 0.76295161618E+01
 0.67276649128E+01 0.59148072586E+01 0.52347792730E+01 0.46704360320E+01 0.42525718254E+01
 0.39815371957E+01 0.38287792115E+01 0.37568090626E+01 0.37364261409E+01 0.37568429414E+01
 0.38288382614E+01 0.39816059215E+01 0.42526307819E+01 0.46704711141E+01 0.52347759633E+01
 0.81847201811E+01 0.99067242907E+01 0.11627362671E+02 0.13018181129E+02 0.13794451609E+02
 0.13794224507E+02 0.13017961287E+02 0.11627622749E+02 0.99070250411E+01 0.81845948060E+01
 0.67276155592E+01 0.56388322788E+01 0.48222661442E+01 0.42194486893E+01 0.38286183802E+01
 0.36096852088E+01 0.35148430428E+01 0.35145542346E+01 0.36093529405E+01 0.38288278072E+01
 0.42197707446E+01 0.48221429237E+01 0.56386181063E+01 0.67277670835E+01 0.12709222759E+02
 0.15645861618E+02 0.18224945498E+02 0.19987791447E+02 0.20613714930E+02 0.19987775712E+02
 0.18224924057E+02 0.15645852433E+02 0.12709237920E+02 0.99069199487E+01 0.76292730253E+01
 0.60317861740E+01 0.49694586950E+01 0.42229579203E+01 0.37565659262E+01 0.35147379504E+01
 0.34415735964E+01 0.35147450909E+01 0.37565707243E+01 0.42229491126E+01 0.49694276485E+01
 0.60317378552E+01 0.76292211243E+01 0.99068792948E+01 0.20032617708E+02 0.24139658192E+02
 0.27320842391E+02 0.29057620903E+02 0.29058023458E+02 0.27321191429E+02 0.24139132436E+02
 0.20032156774E+02 0.15646071579E+02 0.11627736801E+02 0.84714153260E+01 0.63580487572E+01
 0.50740613053E+01 0.42333425297E+01 0.37362627345E+01 0.35144401818E+01 0.35149642361E+01
 0.37368357478E+01 0.42329077735E+01 0.50735049159E+01 0.63583854413E+01 0.84718112882E+01
 0.11627261386E+02 0.15645598256E+02 0.29996388632E+02 0.34981731607E+02 0.38344719423E+02
 0.39534399254E+02 0.38344731200E+02 0.34981748649E+02 0.29996398871E+02 0.24139029378E+02
 0.18225167194E+02 0.13018388583E+02 0.90725561823E+01 0.65453139747E+01 0.51114810999E+01
 0.42334941815E+01 0.37568429414E+01 0.36091358293E+01 0.37568138608E+01 0.42334491222E+01
 0.51114384495E+01 0.65452902254E+01 0.90725544553E+01 0.13018402737E+02 0.18225182484E+02
 0.24139032791E+02 0.42046628548E+02 0.47546204093E+02 0.50580244947E+02 0.50580015926E+02
 0.47546102330E+02 0.42047142808E+02 0.34981613544E+02 0.27320785185E+02 0.19987588614E+02
 0.13794516698E+02 0.92906667755E+01 0.65454074905E+01 0.50736321185E+01 0.42232685914E+01
 0.38289696213E+01 0.38285356161E+01 0.42227620139E+01 0.50739111599E+01 0.65457995276E+01
 0.92903789630E+01 0.13794203120E+02 0.19987993661E+02 0.27321217009E+02 0.34981267977E+02
 0.55559548432E+02 0.61121899779E+02 0.63126511587E+02 0.61121967700E+02 0.55559657337E+02
 0.47546289429E+02 0.38344871633E+02 0.29057804313E+02 0.20613331361E+02 0.13794346516E+02
 0.90726590348E+01 0.63581508720E+01 0.49690460060E+01 0.42196719252E+01 0.39817463540E+01
 0.42196656522E+01 0.49690440796E+01 0.63581662961E+01 0.90726948877E+01 0.13794390219E+02
 0.20613356697E+02 0.29057786434E+02 0.38344801532E+02 0.47546181227E+02 0.69671408940E+02
 0.74536750526E+02 0.74536585539E+02 0.69671172119E+02 0.61121986008E+02 0.50580221333E+02
 0.39534703149E+02 0.29057821739E+02 0.19987809756E+02 0.13018094345E+02 0.84715508218E+01
 0.60316393231E+01 0.48221672302E+01 0.42526608066E+01 0.42526682121E+01 0.48222297074E+01
 0.60317561638E+01 0.84716104516E+01 0.13018062225E+02 0.19987788254E+02 0.29057804743E+02
 0.39534539846E+02 0.50579962628E+02 0.61121936965E+02 0.82746276945E+02 0.85763145005E+02
 0.82746316100E+02 0.74536410002E+02 0.63126371155E+02 0.50580251695E+02 0.38344719423E+02
 0.27320867690E+02 0.18225188634E+02 0.11627661609E+02 0.76294423372E+01 0.56385081297E+01
 0.46704584536E+01 0.43563891865E+01 0.46704711141E+01 0.56385293524E+01 0.76294642608E+01
 0.11627674377E+02 0.18225182484E+02 0.27320836064E+02 0.38344661100E+02 0.50580174783E+02
 0.63126288966E+02 0.74536341059E+02 0.92281801021E+02 0.92282401632E+02 0.85763176266E+02
 0.74536507110E+02 0.61121674672E+02 0.47546242102E+02 0.34981634511E+02 0.24139213939E+02
 0.15645636511E+02 0.99070544906E+01 0.67278819333E+01 0.52346008202E+01 0.45562940648E+01
 0.45566714717E+01 0.52349453319E+01 0.67274368836E+01 0.99066541873E+01 0.15646042508E+02
 0.24139580102E+02 0.34981229968E+02 0.47545956120E+02 0.61122180381E+02 0.74536760012E+02
 0.85762413426E+02 0.92281801021E+02 0.85762413426E+02 0.74536760012E+02 0.61122180381E+02
 0.47545956120E+02 0.34981229968E+02 0.24139580102E+02 0.15646042508E+02 0.99066541873E+01
 0.67274368836E+01 0.52349453319E+01 0.45566714717E+01 0.45562940648E+01 0.52346008202E+01
 0.67278819333E+01 0.99070544906E+01 0.15645636511E+02 0.24139213939E+02 0.34981634511E+02
 0.47546242102E+02 0.61121674672E+02 0.74536507110E+02 0.85763176266E+02 0.92282401632E+02
 0.85762593690E+02 0.77124454544E+02 0.65179565715E+02 0.52134950372E+02 0.39498039050E+02
 0.28156010153E+02 0.18792735944E+02 0.11970700762E+02 0.78090005095E+01 0.57321692406E+01
 0.47367323652E+01 0.44132964586E+01 0.47366246701E+01 0.57321562739E+01 0.78091595733E+01
 0.11970868340E+02 0.18792741250E+02 0.28155854472E+02 0.39497835883E+02 0.52134856825E+02
 0.65179749426E+02 0.77124908962E+02 0.85763005335E+02 0.88945033512E+02 0.74536604995E+02
 0.65179454178E+02 0.53771455223E+02 0.41963437096E+02 0.30856321908E+02 0.21249483456E+02
 0.13817473689E+02 0.89108204928E+01 0.62516377857E+01 0.49610406095E+01 0.43576845844E+01
 0.43577675681E+01 0.49610712375E+01 0.62514697018E+01 0.89107866936E+01 0.13817720956E+02
 0.21249563294E+02 0.30856019465E+02 0.41963286597E+02 0.53771821495E+02 0.65179855732E+02
 0.74536577662E+02 0.79901180470E+02 0.79901309528E+02 0.61121939212E+02 0.52134703324E+02
 0.41963383868E+02 0.31808022204E+02 0.22593894885E+02 0.15093877263E+02 0.98171593342E+01
 0.67333915786E+01 0.51836818969E+01 0.43682054197E+01 0.41073286118E+01 0.43682560408E+01
 0.51836375666E+01 0.67332423303E+01 0.98170669757E+01 0.15093917145E+02 0.22593983985E+02
 0.31808113174E+02 0.41963509296E+02 0.52134812745E+02 0.61121931402E+02 0.67438315694E+02
 0.69730418099E+02 0.67438394396E+02 0.47546050628E+02 0.39497929182E+02 0.30856380988E+02
 0.22594067524E+02 0.15548948532E+02 0.10328341534E+02 0.70797380598E+01 0.53601870057E+01
 0.44104339643E+01 0.39651271242E+01 0.39654518065E+01 0.44107831860E+01 0.53598894513E+01
 0.70793510243E+01 0.10328547899E+02 0.15549273451E+02 0.22593872568E+02 0.30856101607E+02
 0.39498162578E+02 0.47546386367E+02 0.53890502519E+02 0.57426050431E+02 0.57426232534E+02
 0.53890613091E+02 0.34981432767E+02 0.28155971894E+02 0.21249579481E+02 0.15094175602E+02
 0.10328482478E+02 0.72055262199E+01 0.54581418026E+01 0.44517991766E+01 0.38980281205E+01
 0.37253039123E+01 0.38980654214E+01 0.44518583565E+01 0.54582047943E+01 0.72055671212E+01
 0.10328463137E+02 0.15094084017E+02 0.21249473767E+02 0.28155939453E+02 0.34981505560E+02
 0.40821287260E+02 0.44791175529E+02 0.46202990217E+02 0.44791086446E+02 0.40821163987E+02
 0.24139591863E+02 0.18792505529E+02 0.13817323584E+02 0.98173509307E+01 0.70798528800E+01
 0.54579328741E+01 0.44676489776E+01 0.38739833418E+01 0.36061473895E+01 0.36056716043E+01
 0.38735039218E+01 0.44681367177E+01 0.54584670549E+01 0.70794467773E+01 0.98168849339E+01
 0.13817775557E+02 0.18793022699E+02 0.24139184049E+02 0.29110296594E+02 0.32959372083E+02
 0.35064349999E+02 0.35064005565E+02 0.32959124004E+02 0.29110848872E+02 0.15646140734E+02
 0.11970487314E+02 0.89104507268E+01 0.67333803787E+01 0.53603548047E+01 0.44515384272E+01
 0.38734785478E+01 0.35705417153E+01 0.34783990604E+01 0.35704907136E+01 0.38734211112E+01
 0.44515082621E+01 0.53603687693E+01 0.67334656054E+01 0.89106214373E+01 0.11970664909E+02
 0.15646183773E+02 0.19426371871E+02 0.22709063836E+02 0.24940896679E+02 0.25731973901E+02
 0.24941097274E+02 0.22709332509E+02 0.19426529694E+02 0.99070220932E+01 0.78091935186E+01
 0.62514427056E+01 0.51835715655E+01 0.44107073620E+01 0.38981896154E+01 0.36057795051E+01
 0.34779493554E+01 0.34782493882E+01 0.36060821832E+01 0.38978853367E+01 0.44103774464E+01
 0.51838534094E+01 0.62518050117E+01 0.78090265321E+01 0.99068123146E+01 0.12338209249E+02
 0.14720000008E+02 0.16618859904E+02 0.17671287648E+02 0.17671595183E+02 0.16619206790E+02
 0.14719781139E+02 0.12337936352E+02 0.67276247834E+01 0.57325294150E+01 0.49611584809E+01
 0.43681158528E+01 0.39652575818E+01 0.37257023463E+01 0.36059007723E+01 0.35703624487E+01
 0.36059096484E+01 0.37257594273E+01 0.39653041453E+01 0.43680398736E+01 0.49610056347E+01
 0.57324733328E+01 0.67277172435E+01 0.79879755759E+01 0.93838847025E+01 0.10668847990E+02
 0.11574629910E+02 0.11900990209E+02 0.11574580416E+02 0.10668790705E+02 0.93838052401E+01
 0.79878464061E+01 0.52347050300E+01 0.47367312153E+01 0.43577818589E+01 0.41072896972E+01
 0.39653210521E+01 0.38980897132E+01 0.38737513011E+01 0.38736931162E+01 0.38980052681E+01
 0.39653067911E+01 0.41072751197E+01 0.43576811166E+01 0.47366306430E+01 0.52347286047E+01
 0.58134444018E+01 0.64643328526E+01 0.71323842768E+01 0.76925762242E+01 0.80133647424E+01
 0.80133239074E+01 0.76925070167E+01 0.71323383645E+01 0.64642649267E+01 0.58133440345E+01
 0.45565123069E+01 0.44130718796E+01 0.43576470943E+01 0.43682485510E+01 0.44106966022E+01
 0.44515912275E+01 0.44678845010E+01 0.44515119722E+01 0.44105703634E+01 0.43681590364E+01
 0.43576601118E+01 0.44131365639E+01 0.45565134456E+01 0.47864922024E+01 0.50749434291E+01
 0.53739644849E+01 0.56375582964E+01 0.58243458756E+01 0.58924032414E+01 0.58242963169E+01
 0.56374860151E+01 0.53739346744E+01 0.50749981155E+01 0.47865689599E+01 0.45565420395E+01
 0.47366947442E+01 0.49609907945E+01 0.51836447763E+01 0.53600429177E+01 0.54582447431E+01
 0.54582168211E+01 0.53600390522E+01 0.51837334781E+01 0.49610545390E+01 0.47366259913E+01
 0.45564392168E+01 0.44527331047E+01 0.44335777547E+01 0.44821834984E+01 0.45653379089E+01
 0.46459687014E+01 0.46942592995E+01 0.46942110118E+01 0.46459159917E+01 0.45653793758E+01
 0.44822465905E+01 0.44335806235E+01 0.44527537410E+01 0.52347839628E+01 0.57324020111E+01
 0.62515887617E+01 0.67332660214E+01 0.70794794768E+01 0.72058511180E+01 0.70796771493E+01
 0.67334519932E+01 0.62516320079E+01 0.57323588956E+01 0.52347256456E+01 0.47864859962E+01
 0.44335275037E+01 0.41947600717E+01 0.40589940880E+01 0.39969656367E+01 0.39760985362E+01
 0.39721705797E+01 0.39762398736E+01 0.39970668114E+01 0.40589750648E+01 0.41947222714E+01
 0.44335563427E+01 0.47865493181E+01 0.67277097610E+01 0.78090766594E+01 0.89108099577E+01
 0.98171079699E+01 0.10328492404E+02 0.10328409460E+02 0.98170583026E+01 0.89109722947E+01
 0.78092217269E+01 0.67276426014E+01 0.58133703912E+01 0.50750423350E+01 0.44822623218E+01
 0.40589191736E+01 0.37930031404E+01 0.36484396679E+01 0.35874625415E+01 0.35873576271E+01
 0.36483629758E+01 0.37931907374E+01 0.40591121184E+01 0.44821821643E+01 0.50748930944E+01
 0.58134180450E+01 0.99070445749E+01 0.11970633205E+02 0.13817442437E+02 0.15093913174E+02
 0.15549341951E+02 0.15093813804E+02 0.13817369590E+02 0.11970672138E+02 0.99071584954E+01
 0.79880905928E+01 0.64641581137E+01 0.53739680039E+01 0.45655647973E+01 0.39969668432E+01
 0.36481864422E+01 0.34693593315E+01 0.34155334887E+01 0.34692873267E+01 0.36481553793E+01
 0.39970281849E+01 0.45656444449E+01 0.53739774974E+01 0.64640920902E+01 0.79879769661E+01
 0.15646054611E+02 0.18792971399E+02 0.21249303777E+02 0.22593820724E+02 0.22594196159E+02
 0.21249678974E+02 0.18792600513E+02 0.15645687985E+02 0.12338259443E+02 0.93840965663E+01
 0.71322059399E+01 0.56373176479E+01 0.46461388267E+01 0.39763111425E+01 0.35872089411E+01
 0.34151393029E+01 0.34155557223E+01 0.35876400322E+01 0.39759093418E+01 0.46456662937E+01
 0.56376189855E+01 0.71325736669E+01 0.93837376330E+01 0.12337886158E+02 0.24139399621E+02
 0.28156433435E+02 0.30856128839E+02 0.31807795458E+02 0.30856230542E+02 0.28156556676E+02
 0.24139408971E+02 0.19426023299E+02 0.14719831794E+02 0.10669066779E+02 0.76925652870E+01
 0.58240027477E+01 0.46942134896E+01 0.39725038056E+01 0.35874236122E+01 0.34689475023E+01
 0.35874305673E+01 0.39725367209E+01 0.46942098137E+01 0.58238848330E+01 0.76924128002E+01
 0.10669058345E+02 0.14719994204E+02 0.19426173116E+02 0.34981170043E+02 0.39498046679E+02
 0.41963597473E+02 0.41963253826E+02 0.39497817158E+02 0.34981745433E+02 0.29110757575E+02
 0.22709121570E+02 0.16618771017E+02 0.11574853024E+02 0.80135783441E+01 0.58922064954E+01
 0.46940040202E+01 0.39764627303E+01 0.36486505880E+01 0.36481114357E+01 0.39758747561E+01
 0.46944400227E+01 0.58927165903E+01 0.80131165056E+01 0.11574355076E+02 0.16619289332E+02
 0.22709742304E+02 0.29110387891E+02 0.47545790975E+02 0.52134625320E+02 0.53771984641E+02
 0.52134807564E+02 0.47546019097E+02 0.40821025857E+02 0.32959409188E+02 0.24940902698E+02
 0.17671200860E+02 0.11901119641E+02 0.80135964460E+01 0.58242986257E+01 0.46457076121E+01
 0.39970813704E+01 0.37933854702E+01 0.39970269747E+01 0.46456231273E+01 0.58242352874E+01
 0.80136070012E+01 0.11901218641E+02 0.17671349557E+02 0.24941026829E+02 0.32959429583E+02
 0.40820897323E+02 0.61121813513E+02 0.65179701322E+02 0.65179885213E+02 0.61122053617E+02
 0.53890546852E+02 0.44791109636E+02 0.35064223937E+02 0.25731765879E+02 0.17671366118E+02
 0.11574523982E+02 0.76926306458E+01 0.56375374408E+01 0.45652702425E+01 0.40589175523E+01
 0.40591604885E+01 0.45655438694E+01 0.56373397269E+01 0.76923497411E+01 0.11574689253E+02
 0.17671685780E+02 0.25731738628E+02 0.35064036503E+02 0.44791129463E+02 0.53890568758E+02
 0.74536703667E+02 0.77125200506E+02 0.74536694261E+02 0.67438297234E+02 0.57426181082E+02
 0.46203320020E+02 0.35064245804E+02 0.24941055778E+02 0.16619042583E+02 0.10668722074E+02
 0.71323460840E+01 0.53739050692E+01 0.44822091877E+01 0.41947680778E+01 0.44822657496E+01
 0.53739525904E+01 0.71323750560E+01 0.10668770926E+02 0.16619074445E+02 0.24940990184E+02
 0.35064111482E+02 0.46203240887E+02 0.57426199775E+02 0.67438336437E+02 0.85762822093E+02
 0.85763125146E+02 0.79901397725E+02 0.69730265785E+02 0.57425986174E+02 0.44791225565E+02
 0.32959491363E+02 0.22709501489E+02 0.14719798438E+02 0.93839290063E+01 0.64643849068E+01
 0.50749168517E+01 0.44334869396E+01 0.44336841481E+01 0.50750870850E+01 0.64641636442E+01
 0.93838193686E+01 0.14720132646E+02 0.22709648683E+02 0.32959052978E+02 0.44790912703E+02
 0.57426326235E+02 0.69730580288E+02 0.79901092273E+02 0.92281921399E+02 0.88944806658E+02
 0.79901505007E+02 0.67438387664E+02 0.53890211969E+02 0.40820895773E+02 0.29110908542E+02
 0.19426534162E+02 0.12337822864E+02 0.79879742054E+01 0.58136389774E+01 0.47865697181E+01
 0.44525238455E+01 0.47865697181E+01 0.58136389774E+01 0.79879742054E+01 0.12337822864E+02
 0.19426534162E+02 0.29110908542E+02 0.40820895773E+02 0.53890211969E+02 0.67438387664E+02
 0.79901505007E+02 0.88944806658E+02 0.82746276945E+02 0.74536341059E+02 0.63126288966E+02
 0.50580174783E+02 0.38344661100E+02 0.27320836064E+02 0.18225182484E+02 0.11627674377E+02
 0.76294642608E+01 0.56385293524E+01 0.46704711141E+01 0.43563891865E+01 0.46704584536E+01
 0.56385081297E+01 0.76294423372E+01 0.11627661609E+02 0.18225188634E+02 0.27320867690E+02
 0.38344719423E+02 0.50580251695E+02 0.63126371155E+02 0.74536410002E+02 0.82746316100E+02
 0.85763145005E+02 0.74536604995E+02 0.65179454178E+02 0.53771455223E+02 0.41963437096E+02
 0.30856321908E+02 0.21249483456E+02 0.13817473689E+02 0.89108204928E+01 0.62516377857E+01
 0.49610406095E+01 0.43576845844E+01 0.43577675681E+01 0.49610712375E+01 0.62514697018E+01
 0.89107866936E+01 0.13817720956E+02 0.21249563294E+02 0.30856019465E+02 0.41963286597E+02
 0.53771821495E+02 0.65179855732E+02 0.74536577662E+02 0.79901180470E+02 0.79901309528E+02
 0.63126286999E+02 0.53771534362E+02 0.43241525703E+02 0.32774436180E+02 0.23291473191E+02
 0.15555798277E+02 0.10085047814E+02 0.68688910164E+01 0.52587898295E+01 0.44204851870E+01
 0.41515346280E+01 0.44204727331E+01 0.52587645761E+01 0.68688553446E+01 0.10085009987E+02
 0.15555774611E+02 0.23291481251E+02 0.32774487534E+02 0.43241619727E+02 0.53771648632E+02
 0.63126392069E+02 0.69730505419E+02 0.72132703906E+02 0.69730442173E+02 0.50579900333E+02
 0.41963268303E+02 0.32774525833E+02 0.24011896474E+02 0.16514959820E+02 0.10909870778E+02
 0.73820216257E+01 0.55153420560E+01 0.45118344622E+01 0.40389410266E+01 0.40391793638E+01
 0.45121007661E+01 0.55151186856E+01 0.73816533498E+01 0.10909893045E+02 0.16515183336E+02
 0.24011911454E+02 0.32774488043E+02 0.41963438778E+02 0.50580008019E+02 0.57426068012E+02
 0.61263811213E+02 0.61263989725E+02 0.57426277773E+02 0.38344661100E+02 0.30856010517E+02
 0.23291475157E+02 0.16515281725E+02 0.11206477042E+02 0.76739392528E+01 0.56928594505E+01
 0.45969899641E+01 0.39917959664E+01 0.38020934966E+01 0.39918077655E+01 0.45970021025E+01
 0.56928557153E+01 0.76739110202E+01 0.11206427991E+02 0.16515229164E+02 0.23291440220E+02
 0.30856004877E+02 0.38344684190E+02 0.44791318296E+02 0.49204109644E+02 0.50780294247E+02
 0.49204084196E+02 0.44791283069E+02 0.27321229635E+02 0.21249353821E+02 0.15555589501E+02
 0.10910169206E+02 0.76743802797E+01 0.57566108368E+01 0.46463121589E+01 0.39789594617E+01
 0.36755562524E+01 0.36750893541E+01 0.39784923747E+01 0.46468182683E+01 0.57572006292E+01
 0.76740249694E+01 0.10909614596E+02 0.15555780991E+02 0.21249626718E+02 0.27320817376E+02
 0.32959092781E+02 0.37336901742E+02 0.39739374464E+02 0.39738904768E+02 0.37336361272E+02
 0.32959399868E+02 0.18225487014E+02 0.13817552829E+02 0.10084741318E+02 0.73819319724E+01
 0.56931639801E+01 0.46465209342E+01 0.39767330843E+01 0.36224403799E+01 0.35142421198E+01
 0.36224571310E+01 0.39767639526E+01 0.46465605760E+01 0.56932030434E+01 0.73819579980E+01
 0.10084744275E+02 0.13817524429E+02 0.18225432328E+02 0.22709442141E+02 0.26583659397E+02
 0.29214387847E+02 0.30146939091E+02 0.29214425519E+02 0.26583721841E+02 0.22709510568E+02
 0.11627674914E+02 0.89109266868E+01 0.68687056826E+01 0.55150670690E+01 0.45969430462E+01
 0.39789360202E+01 0.36222550462E+01 0.34652575960E+01 0.34656583421E+01 0.36226498977E+01
 0.39785004536E+01 0.45964798712E+01 0.55154584150E+01 0.68692384860E+01 0.89107395204E+01
 0.11627370512E+02 0.14720091997E+02 0.17708734878E+02 0.20072047187E+02 0.21376825017E+02
 0.21377266366E+02 0.20072591529E+02 0.17708545790E+02 0.14719809198E+02 0.76294642608E+01
 0.62517405751E+01 0.52587917964E+01 0.45117421865E+01 0.39917959664E+01 0.36755294062E+01
 0.35139375902E+01 0.34652910793E+01 0.35139159420E+01 0.36754987732E+01 0.39917758432E+01
 0.45117453303E+01 0.52588234830E+01 0.62517869309E+01 0.76295104342E+01 0.93838082440E+01
 0.11299517267E+02 0.13038467743E+02 0.14252936338E+02 0.14688629926E+02 0.14252941872E+02
 0.13038470567E+02 0.11299504793E+02 0.93837755544E+01 0.56386529911E+01 0.49611809069E+01
 0.44205463448E+01 0.40389695221E+01 0.38022645905E+01 0.36753592871E+01 0.36225182888E+01
 0.36224034063E+01 0.36752556864E+01 0.38024083327E+01 0.40391011438E+01 0.44203821522E+01
 0.49609525107E+01 0.56386733874E+01 0.64643714818E+01 0.74434748918E+01 0.84521215181E+01
 0.92911927525E+01 0.97683441665E+01 0.97681911389E+01 0.92909592397E+01 0.84520650228E+01
 0.74434534399E+01 0.64642406014E+01 0.46704692338E+01 0.43577637241E+01 0.41515345413E+01
 0.40390897105E+01 0.39918058852E+01 0.39787011500E+01 0.39770703624E+01 0.39786857873E+01
 0.39917739629E+01 0.40390399861E+01 0.41514741084E+01 0.43577062526E+01 0.46704324487E+01
 0.50749521267E+01 0.55281107917E+01 0.59950085536E+01 0.64281045767E+01 0.67408493874E+01
 0.68553016041E+01 0.67408049443E+01 0.64280336440E+01 0.59949387201E+01 0.55280661302E+01
 0.50749489701E+01 0.43562383480E+01 0.43577223863E+01 0.44204387752E+01 0.45119771549E+01
 0.45968038088E+01 0.46466434509E+01 0.46465266182E+01 0.45966312470E+01 0.45119612172E+01
 0.44204772679E+01 0.43576722947E+01 0.43562127676E+01 0.44336029965E+01 0.45840429264E+01
 0.47790875601E+01 0.49768592484E+01 0.51351458525E+01 0.52226794353E+01 0.52225917024E+01
 0.51350621345E+01 0.49769693134E+01 0.47792294933E+01 0.45840111008E+01 0.44335120753E+01
 0.46704584536E+01 0.49610396474E+01 0.52587665430E+01 0.55151607893E+01 0.56928557153E+01
 0.57570394036E+01 0.56928985139E+01 0.55152255317E+01 0.52588234830E+01 0.49610612181E+01
 0.46704343290E+01 0.44335214891E+01 0.42782700108E+01 0.42071054641E+01 0.42005194351E+01
 0.42277157243E+01 0.42583215231E+01 0.42710427903E+01 0.42583241787E+01 0.42277291401E+01
 0.42005533119E+01 0.42071614369E+01 0.42783356772E+01 0.44335775049E+01 0.56386971120E+01
 0.62515446557E+01 0.68688511587E+01 0.73817471889E+01 0.76741474576E+01 0.76742295588E+01
 0.73819538121E+01 0.68690573382E+01 0.62516091877E+01 0.56386080438E+01 0.50749479409E+01
 0.45840131544E+01 0.42070621003E+01 0.39534344277E+01 0.38050202258E+01 0.37309851619E+01
 0.37023991251E+01 0.37024006620E+01 0.37310089856E+01 0.38050704005E+01 0.39534569515E+01
 0.42070451858E+01 0.45840408728E+01 0.50750591525E+01 0.76295422043E+01 0.89108658333E+01
 0.10084908153E+02 0.10909803392E+02 0.11206527858E+02 0.10909823371E+02 0.10084948937E+02
 0.89109248541E+01 0.76296103013E+01 0.64643103240E+01 0.55280090443E+01 0.47791215179E+01
 0.42006193023E+01 0.38050244116E+01 0.35670574900E+01 0.34466785052E+01 0.34107575279E+01
 0.34467161762E+01 0.35671173902E+01 0.38050804548E+01 0.42006498305E+01 0.47791139405E+01
 0.55279643828E+01 0.64642467919E+01 0.11627624372E+02 0.13817789376E+02 0.15555627052E+02
 0.16514946124E+02 0.16515144472E+02 0.15555719775E+02 0.13817376870E+02 0.11627408286E+02
 0.93841377324E+01 0.74436836089E+01 0.59948609943E+01 0.49767456469E+01 0.42279108332E+01
 0.37311285354E+01 0.34465309459E+01 0.33214921672E+01 0.33218055987E+01 0.34468541493E+01
 0.37308439965E+01 0.42276392365E+01 0.49770837143E+01 0.59951410675E+01 0.74432447228E+01
 0.93836433321E+01 0.18225188634E+02 0.21249784205E+02 0.23291483218E+02 0.24011701056E+02
 0.23291440220E+02 0.21249717994E+02 0.18225127799E+02 0.14719606612E+02 0.11299517267E+02
 0.84524827268E+01 0.64281064569E+01 0.51348118437E+01 0.42583215231E+01 0.37026949902E+01
 0.34106576607E+01 0.33213579884E+01 0.34106557482E+01 0.37026831726E+01 0.42582920802E+01
 0.51347622969E+01 0.64280498627E+01 0.84524375148E+01 0.11299504793E+02 0.14719636502E+02
 0.27320809002E+02 0.30856342090E+02 0.32774731018E+02 0.32774334211E+02 0.30855993644E+02
 0.27321269636E+02 0.22709685626E+02 0.17708306060E+02 0.13038042329E+02 0.92913750796E+01
 0.67410928723E+01 0.52224019925E+01 0.42707517558E+01 0.37026483328E+01 0.34469596611E+01
 0.34464631051E+01 0.37021396368E+01 0.42712120714E+01 0.52228434456E+01 0.67405240922E+01
 0.92908090115E+01 0.13038559821E+02 0.17708974608E+02 0.22709396119E+02 0.38344395362E+02
 0.41963365736E+02 0.43241941821E+02 0.41963349125E+02 0.38344360129E+02 0.32959301556E+02
 0.26584287987E+02 0.20072232521E+02 0.14252612277E+02 0.97682830087E+01 0.68556237851E+01
 0.52226256603E+01 0.42580001174E+01 0.37310131714E+01 0.35675413186E+01 0.37309915558E+01
 0.42579680189E+01 0.52225999606E+01 0.68556199860E+01 0.97683074047E+01 0.14252662499E+02
 0.20072295350E+02 0.26584350432E+02 0.32959353248E+02 0.50579897091E+02 0.53771572548E+02
 0.53771818440E+02 0.50580088174E+02 0.44790916237E+02 0.37336523159E+02 0.29214557654E+02
 0.21377180158E+02 0.14688642048E+02 0.97680824891E+01 0.67409747518E+01 0.51352658999E+01
 0.42276068822E+01 0.38048964071E+01 0.38052502624E+01 0.42279566033E+01 0.51348925403E+01
 0.67405977696E+01 0.97684772122E+01 0.14689136545E+02 0.21376953425E+02 0.29214169387E+02