   1   1   0   0
  0.1246917E+02  0.2602860E-09  0.2602860E-09  0.2602860E-09  0.5000000E-15
  1.000000000000000E-004
  CAR 
 unknown system                          
     39.05314104      1.41820506  301     13.87233171      1.00000000
      1.418  0.0000E+00  0.0000E+00
      1.544  0.0000E+00  0.0000E+00
      1.669  0.0000E+00  0.0000E+00
      1.795 -0.1134E-30 -0.1422E-31
      1.920 -0.1869E-26 -0.2345E-27
      2.045 -0.1393E-22 -0.1748E-23
      2.171 -0.4688E-19 -0.5882E-20
      2.296 -0.6888E-16 -0.8647E-17
      2.422 -0.4650E-13 -0.5842E-14
      2.547 -0.1400E-10 -0.1763E-11
      2.673 -0.1863E-08 -0.2355E-09
      2.798 -0.1076E-06 -0.1373E-07
      2.924 -0.2600E-05 -0.3399E-06
      3.049 -0.2373E-04 -0.3317E-05
      3.175 -0.4728E-04 -0.9248E-05
      3.300  0.2441E-03  0.2137E-04
      3.425  0.8819E-03  0.1320E-03
      3.551  0.7096E-03  0.2210E-03
      3.676  0.5274E-03  0.2872E-03
      3.802  0.2218E-02  0.5655E-03
      3.927  0.2790E-02  0.9154E-03
      4.053  0.1406E-02  0.1092E-02
      4.178  0.2191E-02  0.1367E-02
      4.304  0.2622E-02  0.1696E-02
      4.429  0.1807E-02  0.1922E-02
      4.554  0.3438E-02  0.2353E-02
      4.680  0.5186E-02  0.3004E-02
      4.805  0.1133E-01  0.4425E-02
      4.931  0.2545E-01  0.7618E-02
      5.056  0.3530E-01  0.1205E-01
      5.182  0.4139E-01  0.1724E-01
      5.307  0.5123E-01  0.2367E-01
      5.433  0.7122E-01  0.3260E-01
      5.558  0.8332E-01  0.4305E-01
      5.683  0.7633E-01  0.5263E-01
      5.809  0.6890E-01  0.6127E-01
      5.934  0.6278E-01  0.6915E-01
      6.060  0.5435E-01  0.7597E-01
      6.185  0.4405E-01  0.8149E-01
      6.311  0.3780E-01  0.8623E-01
      6.436  0.4906E-01  0.9239E-01
      6.562  0.5712E-01  0.9956E-01
      6.687  0.4986E-01  0.1058E+00
      6.813  0.4789E-01  0.1118E+00
      6.938  0.4569E-01  0.1176E+00
      7.063  0.4604E-01  0.1233E+00
      7.189  0.5308E-01  0.1300E+00
      7.314  0.5415E-01  0.1368E+00
      7.440  0.6064E-01  0.1444E+00
      7.565  0.7096E-01  0.1533E+00
      7.691  0.8048E-01  0.1634E+00
      7.816  0.8615E-01  0.1742E+00
      7.942  0.8175E-01  0.1844E+00
      8.067  0.6385E-01  0.1925E+00
      8.192  0.4771E-01  0.1984E+00
      8.318  0.5178E-01  0.2049E+00
      8.443  0.6019E-01  0.2125E+00
      8.569  0.5340E-01  0.2192E+00
      8.694  0.4163E-01  0.2244E+00
      8.820  0.4715E-01  0.2303E+00
      8.945  0.5970E-01  0.2378E+00
      9.071  0.7126E-01  0.2468E+00
      9.196  0.6897E-01  0.2554E+00
      9.322  0.4534E-01  0.2611E+00
      9.447  0.4407E-01  0.2666E+00
      9.572  0.6227E-01  0.2744E+00
      9.698  0.5272E-01  0.2810E+00
      9.823  0.3328E-01  0.2852E+00
      9.949  0.4686E-01  0.2911E+00
     10.074  0.6345E-01  0.2991E+00
     10.200  0.5816E-01  0.3064E+00
     10.325  0.5657E-01  0.3135E+00
     10.451  0.7553E-01  0.3229E+00
     10.576  0.8107E-01  0.3331E+00
     10.701  0.5387E-01  0.3399E+00
     10.827  0.3431E-01  0.3442E+00
     10.952  0.2441E-01  0.3472E+00
     11.078  0.1449E-01  0.3490E+00
     11.203  0.6694E-02  0.3499E+00
     11.329  0.2775E-02  0.3502E+00
     11.454  0.3813E-02  0.3507E+00
     11.580  0.6513E-02  0.3515E+00
     11.705  0.5414E-02  0.3522E+00
     11.831  0.1716E-02  0.3524E+00
     11.956  0.1828E-02  0.3526E+00
     12.081  0.4864E-02  0.3533E+00
     12.207  0.1164E-01  0.3547E+00
     12.332  0.1382E-01  0.3565E+00
     12.458  0.7599E-02  0.3574E+00
     12.583  0.6561E-02  0.3582E+00
     12.709  0.6865E-02  0.3591E+00
     12.834  0.3528E-02  0.3595E+00
     12.960  0.2359E-02  0.3598E+00
     13.085  0.3413E-02  0.3603E+00
     13.210  0.7428E-02  0.3612E+00
     13.336  0.9877E-02  0.3624E+00
     13.461  0.1235E-01  0.3640E+00
     13.587  0.1354E-01  0.3657E+00
     13.712  0.5890E-02  0.3664E+00
     13.838  0.1235E-02  0.3666E+00
     13.963  0.4416E-02  0.3671E+00
     14.089  0.6758E-02  0.3680E+00
     14.214  0.8738E-02  0.3691E+00
     14.340  0.7794E-02  0.3700E+00
     14.465  0.3095E-02  0.3704E+00
     14.590  0.5410E-02  0.3711E+00
     14.716  0.8425E-02  0.3722E+00
     14.841  0.5720E-02  0.3729E+00
     14.967  0.6100E-02  0.3736E+00
     15.092  0.1085E-01  0.3750E+00
     15.218  0.1182E-01  0.3765E+00
     15.343  0.1387E-01  0.3782E+00
     15.469  0.1403E-01  0.3800E+00
     15.594  0.4771E-02  0.3806E+00
     15.719 -0.7581E-03  0.3805E+00
     15.845 -0.4881E-03  0.3804E+00
     15.970  0.2721E-02  0.3808E+00
     16.096  0.5892E-02  0.3815E+00
     16.221  0.5145E-02  0.3822E+00
     16.347  0.6756E-02  0.3830E+00
     16.472  0.1188E-01  0.3845E+00
     16.598  0.1296E-01  0.3861E+00
     16.723  0.8226E-02  0.3872E+00
     16.849  0.6157E-02  0.3879E+00
     16.974  0.4786E-02  0.3885E+00
     17.099  0.3093E-02  0.3889E+00
     17.225  0.2324E-02  0.3892E+00
     17.350  0.3461E-02  0.3896E+00
     17.476  0.7503E-02  0.3906E+00
     17.601  0.1120E-01  0.3920E+00
     17.727  0.6957E-02  0.3929E+00
     17.852  0.2230E-02  0.3931E+00
     17.978  0.4758E-02  0.3937E+00
     18.103  0.5183E-02  0.3944E+00
     18.228  0.1599E-02  0.3946E+00
     18.354  0.1678E-02  0.3948E+00
     18.479  0.2553E-02  0.3951E+00
     18.605  0.2265E-02  0.3954E+00
     18.730  0.5842E-02  0.3961E+00
     18.856  0.9444E-02  0.3973E+00
     18.981  0.7300E-02  0.3982E+00
     19.107  0.2013E-02  0.3985E+00
     19.232 -0.8147E-03  0.3984E+00
     19.358 -0.4342E-03  0.3983E+00
     19.483  0.5713E-02  0.3991E+00
     19.608  0.1580E-01  0.4010E+00
     19.734  0.2003E-01  0.4035E+00
     19.859  0.1596E-01  0.4055E+00
     19.985  0.8986E-02  0.4067E+00
     20.110  0.4262E-02  0.4072E+00
     20.236  0.3008E-02  0.4076E+00
     20.361  0.8335E-02  0.4086E+00
     20.487  0.1838E-01  0.4109E+00
     20.612  0.1713E-01  0.4131E+00
     20.737  0.9428E-02  0.4143E+00
     20.863  0.8010E-02  0.4153E+00
     20.988  0.4650E-02  0.4159E+00
     21.114  0.3442E-02  0.4163E+00
     21.239  0.7508E-02  0.4172E+00
     21.365  0.8748E-02  0.4183E+00
     21.490  0.7467E-02  0.4193E+00
     21.616  0.8211E-02  0.4203E+00
     21.741  0.7956E-02  0.4213E+00
     21.867  0.7000E-02  0.4222E+00
     21.992  0.1021E-01  0.4235E+00
     22.117  0.1326E-01  0.4251E+00
     22.243  0.1196E-01  0.4266E+00
     22.368  0.6890E-02  0.4275E+00
     22.494  0.9838E-03  0.4276E+00
     22.619  0.8315E-03  0.4277E+00
     22.745  0.6856E-02  0.4286E+00
     22.870  0.1180E-01  0.4301E+00
     22.996  0.1101E-01  0.4314E+00
     23.121  0.6409E-02  0.4322E+00
     23.246  0.4286E-02  0.4328E+00
     23.372  0.7970E-02  0.4338E+00
     23.497  0.1451E-01  0.4356E+00
     23.623  0.2167E-01  0.4383E+00
     23.748  0.2524E-01  0.4415E+00
     23.874  0.2023E-01  0.4440E+00
     23.999  0.1117E-01  0.4454E+00
     24.125  0.1290E-01  0.4470E+00
     24.250  0.1880E-01  0.4494E+00
     24.376  0.1460E-01  0.4512E+00
     24.501  0.8376E-02  0.4523E+00
     24.626  0.9501E-02  0.4535E+00
     24.752  0.1670E-01  0.4556E+00
     24.877  0.1926E-01  0.4580E+00
     25.003  0.1230E-01  0.4595E+00
     25.128  0.6187E-02  0.4603E+00
     25.254  0.2435E-02  0.4606E+00
     25.379  0.6328E-02  0.4614E+00
     25.505  0.1698E-01  0.4635E+00
     25.630  0.2193E-01  0.4663E+00
     25.755  0.2329E-01  0.4692E+00
     25.881  0.2130E-01  0.4719E+00
     26.006  0.1487E-01  0.4737E+00
     26.132  0.1777E-01  0.4760E+00
     26.257  0.2507E-01  0.4791E+00
     26.383  0.1411E-01  0.4809E+00
     26.508  0.4350E-02  0.4814E+00
     26.634  0.1294E-01  0.4831E+00
     26.759  0.2208E-01  0.4858E+00
     26.885  0.2407E-01  0.4888E+00
     27.010  0.2045E-01  0.4914E+00
     27.135  0.1439E-01  0.4932E+00
     27.261  0.1081E-01  0.4946E+00
     27.386  0.1203E-01  0.4961E+00
     27.512  0.1375E-01  0.4978E+00
     27.637  0.1103E-01  0.4992E+00
     27.763  0.9480E-02  0.5004E+00
     27.888  0.7855E-02  0.5014E+00
     28.014  0.1111E-01  0.5028E+00
     28.139  0.2351E-01  0.5057E+00
     28.264  0.2522E-01  0.5089E+00
     28.390  0.1584E-01  0.5109E+00
     28.515  0.1948E-01  0.5133E+00
     28.641  0.2512E-01  0.5165E+00
     28.766  0.2455E-01  0.5195E+00
     28.892  0.2197E-01  0.5223E+00
     29.017  0.1276E-01  0.5239E+00
     29.143  0.7955E-02  0.5249E+00
     29.268  0.1208E-01  0.5264E+00
     29.394  0.1858E-01  0.5287E+00
     29.519  0.2854E-01  0.5323E+00
     29.644  0.3483E-01  0.5367E+00
     29.770  0.2483E-01  0.5398E+00
     29.895  0.1653E-01  0.5419E+00
     30.021  0.1443E-01  0.5437E+00
     30.146  0.6585E-02  0.5445E+00
     30.272  0.3418E-02  0.5449E+00
     30.397  0.1775E-01  0.5472E+00
     30.523  0.3594E-01  0.5517E+00
     30.648  0.2739E-01  0.5551E+00
     30.773  0.1366E-01  0.5568E+00
     30.899  0.1182E-01  0.5583E+00
     31.024  0.9591E-02  0.5595E+00
     31.150  0.1695E-01  0.5616E+00
     31.275  0.2523E-01  0.5648E+00
     31.401  0.1842E-01  0.5671E+00
     31.526  0.1169E-01  0.5686E+00
     31.652  0.1412E-01  0.5704E+00
     31.777  0.1890E-01  0.5727E+00
     31.903  0.1660E-01  0.5748E+00
     32.028  0.1280E-01  0.5764E+00
     32.153  0.7662E-02  0.5774E+00
     32.279  0.1732E-02  0.5776E+00
     32.404  0.7860E-03  0.5777E+00
     32.530  0.6283E-02  0.5785E+00
     32.655  0.9293E-02  0.5796E+00
     32.781  0.7649E-02  0.5806E+00
     32.906  0.8376E-02  0.5817E+00
     33.032  0.9769E-02  0.5829E+00
     33.157  0.8145E-02  0.5839E+00
     33.282  0.4105E-02  0.5844E+00
     33.408  0.1783E-02  0.5846E+00
     33.533  0.6468E-02  0.5854E+00
     33.659  0.1463E-01  0.5873E+00
     33.784  0.1540E-01  0.5892E+00
     33.910  0.7013E-02  0.5901E+00
     34.035  0.1994E-02  0.5903E+00
     34.161  0.4979E-02  0.5910E+00
     34.286  0.6429E-02  0.5918E+00
     34.411  0.4893E-02  0.5924E+00
     34.537  0.1976E-02  0.5926E+00
     34.662  0.1666E-02  0.5928E+00
     34.788  0.7279E-02  0.5938E+00
     34.913  0.8647E-02  0.5948E+00
     35.039  0.4701E-02  0.5954E+00
     35.164  0.4140E-02  0.5960E+00
     35.290  0.5782E-02  0.5967E+00
     35.415  0.6113E-02  0.5974E+00
     35.541  0.5702E-02  0.5982E+00
     35.666  0.6611E-02  0.5990E+00
     35.791  0.3870E-02  0.5995E+00
     35.917  0.3768E-03  0.5995E+00
     36.042 -0.2825E-03  0.5995E+00
     36.168 -0.7415E-04  0.5995E+00
     36.293 -0.6403E-05  0.5995E+00
     36.419 -0.3697E-05  0.5995E+00
     36.544 -0.2973E-04  0.5995E+00
     36.670 -0.5998E-04  0.5995E+00
     36.795  0.2599E-03  0.5995E+00
     36.920  0.1157E-02  0.5996E+00
     37.046  0.1663E-02  0.5999E+00
     37.171  0.1061E-02  0.6000E+00
     37.297  0.1963E-03  0.6000E+00
     37.422 -0.6331E-04  0.6000E+00
     37.548 -0.2514E-04  0.6000E+00
     37.673 -0.2648E-05  0.6000E+00
     37.799 -0.1083E-06  0.6000E+00
     37.924 -0.1867E-08  0.6000E+00
     38.050 -0.1402E-10  0.6000E+00
     38.175 -0.4652E-13  0.6000E+00
     38.300 -0.6868E-16  0.6000E+00
     38.426  0.0000E+00  0.6000E+00
     38.551  0.0000E+00  0.6000E+00
     38.677  0.0000E+00  0.6000E+00
     38.802  0.0000E+00  0.6000E+00
     38.928  0.0000E+00  0.6000E+00
     39.053  0.0000E+00  0.6000E+00
