    1    1   30    1
  0.1246917E+02  0.2602860E-09  0.2602860E-09  0.2602860E-09  0.5000000E-15
  1.000000000000000E-004
  CAR 
 unknown system                          
     11     60      9
 
  0.6250000E-01  0.6250000E-01  0.6250000E-01  0.3906250E-02
    1        3.418205
    2        7.327129
    3        7.436786
    4        7.436786
    5        9.140666
    6        9.140666
    7       30.088937
    8       34.374046
    9       35.589727
 
  0.1875000E+00  0.6250000E-01  0.6250000E-01  0.1171875E-01
    1        4.196977
    2        7.074181
    3        7.673613
    4        7.711663
    5        8.891178
    6        9.276960
    7       30.589651
    8       31.710828
    9       35.301281
 
  0.3125000E+00  0.6250000E-01  0.6250000E-01  0.1171875E-01
    1        5.151803
    2        7.491697
    3        7.756183
    4        7.805549
    5        9.168966
    6        9.949059
    7       26.601105
    8       30.914928
    9       35.566590
 
  0.4375000E+00  0.6250000E-01  0.6250000E-01  0.1171875E-01
    1        5.013372
    2        7.362545
    3        7.490598
    4        9.518379
    5       10.051176
    6       11.601570
    7       21.681551
    8       29.726796
    9       34.121769
 
 -0.4375000E+00  0.6250000E-01  0.6250000E-01  0.1171875E-01
    1        4.904313
    2        7.238422
    3        7.420751
    4        9.908573
    5       10.536119
    6       12.924978
    7       19.527394
    8       29.344431
    9       34.168745
 
 -0.3125000E+00  0.6250000E-01  0.6250000E-01  0.1171875E-01
    1        5.087386
    2        7.421145
    3        7.614963
    4        8.797020
    5       10.195830
    6       10.643715
    7       23.237686
    8       30.151222
    9       34.796531
 
 -0.1875000E+00  0.6250000E-01  0.6250000E-01  0.1171875E-01
    1        4.963237
    2        7.145764
    3        7.759865
    4        7.817713
    5        9.122233
    6        9.503263
    7       28.244373
    8       31.318744
    9       35.656247
 
 -0.6250000E-01  0.6250000E-01  0.6250000E-01  0.1171875E-01
    1        3.826628
    2        7.129718
    3        7.608680
    4        7.614225
    5        8.926795
    6        9.245565
    7       30.499852
    8       33.078303
    9       35.333405
 
  0.1875000E+00  0.1875000E+00  0.6250000E-01  0.1171875E-01
    1        4.559727
    2        6.750565
    3        7.927040
    4        7.960151
    5        8.667700
    6        9.443004
    7       31.089442
    8       31.972074
    9       34.369481
 
  0.3125000E+00  0.1875000E+00  0.6250000E-01  0.2343750E-01
    1        5.544037
    2        6.455963
    3        7.701940
    4        8.384884
    5        9.151489
    6       10.104664
    7       28.734702
    8       30.782782
    9       33.555996
 
  0.4375000E+00  0.1875000E+00  0.6250000E-01  0.2343750E-01
    1        5.547929
    2        7.040352
    3        7.577413
    4        8.233478
    5       10.178388
    6       12.248149
    7       23.607031
    8       29.906734
    9       31.671465
 
 -0.4375000E+00  0.1875000E+00  0.6250000E-01  0.2343750E-01
    1        5.428838
    2        6.819844
    3        7.952239
    4        8.502981
    5       10.460543
    6       15.097942
    7       19.558257
    8       29.168540
    9       31.182949
 
 -0.3125000E+00  0.1875000E+00  0.6250000E-01  0.2343750E-01
    1        5.593335
    2        6.978131
    3        7.898252
    4        8.237885
    5        9.932788
    6       13.452544
    7       22.061664
    8       28.886849
    9       31.750976
 
 -0.1875000E+00  0.1875000E+00  0.6250000E-01  0.2343750E-01
    1        5.842023
    2        6.753365
    3        7.480090
    4        8.331402
    5        8.921893
    6       11.013998
    7       27.079785
    8       29.380014
    9       33.708873
 
 -0.6250000E-01  0.1875000E+00  0.6250000E-01  0.2343750E-01
    1        4.854708
    2        6.817834
    3        7.820159
    4        7.953216
    5        8.774513
    6        9.584603
    7       29.926863
    8       31.187504
    9       34.797964
 
  0.3125000E+00  0.3125000E+00  0.6250000E-01  0.1171875E-01
    1        5.539634
    2        5.817403
    3        8.610586
    4        9.042921
    5        9.940925
    6       10.009850
    7       29.159754
    8       30.478595
    9       30.809445
 
  0.4375000E+00  0.3125000E+00  0.6250000E-01  0.2343750E-01
    1        5.447702
    2        5.685417
    3        8.469468
    4        9.525413
    5       10.262026
    6       12.627779
    7       26.017867
    8       28.120600
    9       28.530059
 
 -0.4375000E+00  0.3125000E+00  0.6250000E-01  0.2343750E-01
    1        5.506610
    2        6.179674
    3        8.012926
    4        9.095289
    5       10.551192
    6       16.531695
    7       21.173633
    8       26.215963
    9       28.590958
 
 -0.3125000E+00  0.3125000E+00  0.6250000E-01  0.2343750E-01
    1        5.995612
    2        6.710544
    3        7.361038
    4        8.796239
    5        9.980794
    6       16.789725
    7       21.568152
    8       24.628544
    9       30.404180
 
 -0.1875000E+00  0.3125000E+00  0.6250000E-01  0.2343750E-01
    1        6.233134
    2        6.827276
    3        7.193223
    4        8.550140
    5        9.386377
    6       13.555078
    7       24.243581
    8       26.694678
    9       31.899128
 
 -0.6250000E-01  0.3125000E+00  0.6250000E-01  0.2343750E-01
    1        5.371962
    2        7.429129
    3        7.681717
    4        7.931639
    5        9.601060
    6       10.818140
    7       25.067468
    8       30.465311
    9       33.759281
 
  0.4375000E+00  0.4375000E+00  0.6250000E-01  0.1171875E-01
    1        4.887645
    2        5.100551
    3       10.132704
    4       10.137369
    5       10.605440
    6       13.481988
    7       25.660661
    8       26.223977
    9       27.057313
 
 -0.4375000E+00  0.4375000E+00  0.6250000E-01  0.2343750E-01
    1        4.916177
    2        5.209348
    3        9.578437
    4       10.103144
    5       10.801546
    6       16.321211
    7       23.538637
    8       24.237630
    9       26.192158
 
 -0.3125000E+00  0.4375000E+00  0.6250000E-01  0.2343750E-01
    1        5.393124
    2        6.029310
    3        8.246524
    4        9.388609
    5       10.498227
    6       18.727565
    7       20.517745
    8       23.806068
    9       28.137896
 
 -0.1875000E+00  0.4375000E+00  0.6250000E-01  0.2343750E-01
    1        5.797121
    2        6.594205
    3        7.908949
    4        8.391778
    5       10.270629
    6       16.505578
    7       19.766438
    8       27.227989
    9       30.502273
 
 -0.6250000E-01  0.4375000E+00  0.6250000E-01  0.2343750E-01
    1        5.138541
    2        7.126347
    3        7.630669
    4        9.094286
    5       10.382638
    6       13.214933
    7       20.411091
    8       29.559195
    9       32.801443
 
 -0.4375000E+00 -0.4375000E+00  0.6250000E-01  0.1171875E-01
    1        4.674458
    2        4.942215
    3       10.374392
    4       10.537388
    5       10.824819
    6       15.111203
    7       23.609369
    8       25.437471
    9       26.243667
 
 -0.3125000E+00 -0.4375000E+00  0.6250000E-01  0.2343750E-01
    1        5.123228
    2        5.365408
    3        9.112675
    4        9.978108
    5       10.576589
    6       14.603752
    7       24.789047
    8       25.812394
    9       26.885033
 
 -0.1875000E+00 -0.4375000E+00  0.6250000E-01  0.2343750E-01
    1        5.596544
    2        6.531633
    3        7.729048
    4        8.659405
    5       10.484551
    6       14.228006
    7       22.260670
    8       28.737834
    9       29.588718
 
 -0.3125000E+00 -0.3125000E+00  0.6250000E-01  0.1171875E-01
    1        5.243087
    2        5.404909
    3        9.434299
    4        9.651665
    5       10.315156
    6       11.527375
    7       27.579139
    8       28.378019
    9       28.542139
 
 -0.1875000E+00 -0.3125000E+00  0.6250000E-01  0.2343750E-01
    1        5.723368
    2        6.091804
    3        7.861434
    4        8.932875
    5        9.797363
    6       11.040077
    7       27.413741
    8       29.605039
    9       31.200885
 
 -0.1875000E+00 -0.1875000E+00  0.6250000E-01  0.1171875E-01
    1        5.325880
    2        6.285232
    3        8.109524
    4        8.451029
    5        8.957331
    6        9.708745
    7       30.506540
    8       32.011915
    9       32.576037
 
  0.1875000E+00  0.1875000E+00  0.1875000E+00  0.3906250E-02
    1        4.483865
    2        7.177276
    3        7.702114
    4        7.702114
    5        9.124807
    6        9.124807
    7       29.645011
    8       31.333753
    9       36.900570
 
  0.3125000E+00  0.1875000E+00  0.1875000E+00  0.1171875E-01
    1        5.350421
    2        6.837463
    3        7.764903
    4        8.053920
    5        8.658140
    6       10.147227
    7       28.457132
    8       30.408246
    9       35.098639
 
  0.4375000E+00  0.1875000E+00  0.1875000E+00  0.1171875E-01
    1        6.069237
    2        6.917007
    3        7.490365
    4        8.245703
    5        8.949095
    6       12.147030
    7       25.599426
    8       27.993556
    9       33.223656
 
 -0.4375000E+00  0.1875000E+00  0.1875000E+00  0.1171875E-01
    1        5.668867
    2        6.833220
    3        8.068694
    4        8.226260
    5       10.004744
    6       14.873250
    7       20.754080
    8       27.929901
    9       32.115645
 
 -0.3125000E+00  0.1875000E+00  0.1875000E+00  0.1171875E-01
    1        5.470638
    2        6.767833
    3        8.106419
    4        8.174028
    5       10.589428
    6       14.690370
    7       20.551929
    8       28.918563
    9       31.684147
 
 -0.1875000E+00  0.1875000E+00  0.1875000E+00  0.1171875E-01
    1        5.570044
    2        6.597933
    3        7.690649
    4        8.435332
    5       10.317217
    6       11.310319
    7       25.410007
    8       30.577995
    9       31.483839
 
  0.3125000E+00  0.3125000E+00  0.1875000E+00  0.1171875E-01
    1        5.418931
    2        6.982849
    3        7.585541
    4        8.062070
    5        9.869881
    6        9.930144
    7       26.839707
    8       31.247891
    9       33.585966
 
  0.4375000E+00  0.3125000E+00  0.1875000E+00  0.2343750E-01
    1        6.007586
    2        6.611865
    3        7.202592
    4        8.807599
    5        9.508487
    6       12.250097
    7       25.736161
    8       28.151580
    9       31.445576
 
 -0.4375000E+00  0.3125000E+00  0.1875000E+00  0.2343750E-01
    1        6.337947
    2        6.450279
    3        7.053209
    4        8.945113
    5        9.940520
    6       15.342966
    7       22.997746
    8       25.621378
    9       29.460914
 
 -0.3125000E+00  0.3125000E+00  0.1875000E+00  0.2343750E-01
    1        5.964489
    2        6.367958
    3        7.510209
    4        8.820878
    5       10.424448
    6       17.601666
    7       19.936042
    8       26.806022
    9       27.703356
 
 -0.1875000E+00  0.3125000E+00  0.1875000E+00  0.2343750E-01
    1        5.833159
    2        6.170171
    3        7.539902
    4        9.310057
    5       10.046396
    6       13.963142
    7       24.446648
    8       26.922144
    9       28.831683
 
  0.4375000E+00  0.4375000E+00  0.1875000E+00  0.1171875E-01
    1        5.434250
    2        6.090412
    3        8.209879
    4        8.905944
    5       10.584834
    6       13.218706
    7       24.009647
    8       28.560573
    9       29.716001
 
 -0.4375000E+00  0.4375000E+00  0.1875000E+00  0.2343750E-01
    1        5.548577
    2        5.845710
    3        8.029661
    4        9.589547
    5       10.491239
    6       16.042939
    7       23.373383
    8       25.828566
    9       26.194014
 
 -0.3125000E+00  0.4375000E+00  0.1875000E+00  0.2343750E-01
    1        5.749706
    2        6.404641
    3        7.322366
    4        9.158098
    5       10.790959
    6       19.715309
    7       21.344446
    8       23.816027
    9       24.752691
 
 -0.1875000E+00  0.4375000E+00  0.1875000E+00  0.2343750E-01
    1        5.988423
    2        6.416882
    3        7.165355
    4        9.141730
    5       10.454213
    6       17.500002
    7       21.961504
    8       24.867816
    9       26.648805
 
 -0.4375000E+00 -0.4375000E+00  0.1875000E+00  0.1171875E-01
    1        5.055040
    2        5.533522
    3        9.121959
    4        9.786512
    5       10.620835
    6       17.289726
    7       22.166660
    8       23.703280
    9       27.795338
 
 -0.3125000E+00 -0.4375000E+00  0.1875000E+00  0.2343750E-01
    1        5.339921
    2        5.712007
    3        8.408199
    4        9.602873
    5       10.793268
    6       17.981654
    7       22.732264
    8       23.729290
    9       25.478313
 
 -0.3125000E+00 -0.3125000E+00  0.1875000E+00  0.1171875E-01
    1        5.213754
    2        5.713408
    3        8.768244
    4        9.402115
    5       10.677331
    6       15.386778
    7       22.843109
    8       25.918032
    9       28.452769
 
  0.3125000E+00  0.3125000E+00  0.3125000E+00  0.3906250E-02
    1        5.043484
    2        7.595789
    3        7.595789
    4        8.646398
    5        9.718901
    6        9.718901
    7       24.832696
    8       30.518326
    9       37.053141
 
  0.4375000E+00  0.3125000E+00  0.3125000E+00  0.1171875E-01
    1        5.432833
    2        7.274036
    3        7.805294
    4        8.272433
    5        9.519078
    6       11.956351
    7       23.482994
    8       29.648512
    9       32.975810
 
 -0.4375000E+00  0.3125000E+00  0.3125000E+00  0.1171875E-01
    1        6.145631
    2        6.841802
    3        7.416741
    4        8.495033
    5        9.571790
    6       15.027785
    7       22.871669
    8       25.470747
    9       32.558717
 
 -0.3125000E+00  0.3125000E+00  0.3125000E+00  0.1171875E-01
    1        5.606167
    2        6.471481
    3        7.857627
    4        9.050010
    5       10.174536
    6       18.391262
    7       20.167249
    8       24.060259
    9       30.475144
 
  0.4375000E+00  0.4375000E+00  0.3125000E+00  0.1171875E-01
    1        5.255839
    2        7.122669
    3        7.815469
    4        8.409359
    5       10.507220
    6       12.496137
    7       21.796434
    8       29.918611
    9       32.992213
 
 -0.4375000E+00  0.4375000E+00  0.3125000E+00  0.2343750E-01
    1        5.822334
    2        6.590185
    3        7.738779
    4        8.465880
    5       10.284759
    6       15.381068
    7       20.827364
    8       28.192710
    9       29.584702
 
 -0.3125000E+00  0.4375000E+00  0.3125000E+00  0.2343750E-01
    1        5.862636
    2        6.484888
    3        7.344778
    4        9.050517
    5       10.453299
    6       18.892403
    7       20.468837
    8       24.151658
    9       27.439633
 
 -0.4375000E+00 -0.4375000E+00  0.3125000E+00  0.1171875E-01
    1        5.603936
    2        6.527244
    3        7.931479
    4        8.632844
    5       10.438401
    6       17.022451
    7       19.696527
    8       26.567750
    9       30.862076
 
  0.4375000E+00  0.4375000E+00  0.4375000E+00  0.3906250E-02
    1        4.837626
    2        7.357630
    3        7.357630
    4       10.418067
    5       10.418068
    6       11.600080
    7       20.328576
    8       29.381793
    9       35.022042
 
 -0.4375000E+00  0.4375000E+00  0.4375000E+00  0.1171875E-01
    1        5.196905
    2        7.031667
    3        7.670489
    4        9.088081
    5       10.380463
    6       14.221045
    7       19.551971
    8       29.322644
    9       32.531491
