       N       E                     dE             d eps       ncg     rms          rms(c)
DAV:   1     0.320083361275E+02    0.32008E+02   -0.47960E+03  1160   0.832E+02
DAV:   2    -0.179190307270E+01   -0.33800E+02   -0.32845E+02  1117   0.181E+02
DAV:   3    -0.201099154482E+01   -0.21909E+00   -0.21906E+00  1286   0.168E+01
DAV:   4    -0.201134643684E+01   -0.35489E-03   -0.35489E-03  1218   0.619E-01
DAV:   5    -0.201134829927E+01   -0.18624E-05   -0.18624E-05  1056   0.416E-02    0.132E+01
DAV:   6    -0.174709950922E+01    0.26425E+00   -0.77173E-01  1097   0.104E+01    0.761E+00
DAV:   7    -0.171042180358E+01    0.36678E-01   -0.72681E-02  1134   0.314E+00    0.281E+00
DAV:   8    -0.170495460551E+01    0.54672E-02   -0.31539E-03  1133   0.673E-01    0.163E-01
DAV:   9    -0.170496463908E+01   -0.10034E-04   -0.72262E-06   601   0.334E-02
   1 F= -.17049646E+01 E0= -.17051250E+01  d E =-.170496E+01
