 vasp.5.3.5 31Mar14 (build Jan 09 2015 16:57:47) complex                        
  
 executed on             LinuxIFC date 2015.03.24  14:26:00
 serial version


--------------------------------------------------------------------------------------------------------


 INCAR:
 POTCAR:    PAW_PBE Ag 02Apr2005                  
 POTCAR:    PAW_PBE Ag 02Apr2005                  
   VRHFIN =Ag : s1 d10                                                          
   LEXCH  = PE                                                                  
   EATOM  =  1037.2675 eV,   76.2370 Ry                                         
                                                                                
   TITEL  = PAW_PBE Ag 02Apr2005                                                
   LULTRA =        F    use ultrasoft PP ?                                      
   IUNSCR =        1    unscreen: 0-lin 1-nonlin 2-no                           
   RPACOR =    2.000    partial core radius                                     
   POMASS =  107.868; ZVAL   =   11.000    mass and valenz                      
   RCORE  =    2.500    outmost cutoff radius                                   
   RWIGS  =    2.840; RWIGS  =    1.503    wigner-seitz radius (au A)           
   ENMAX  =  249.844; ENMIN  =  187.383 eV                                      
   ICORE  =        3    local potential                                         
   LCOR   =        T    correct aug charges                                     
   LPAW   =        T    paw PP                                                  
   EAUG   =  412.496                                                            
   DEXC   =    0.000                                                            
   RMAX   =    2.560    core radius for proj-oper                               
   RAUG   =    1.300    factor for augmentation sphere                          
   RDEP   =    2.576    radius for radial grids                                 
   RDEPT  =    2.072    core radius for aug-charge                              
                                                                                
   Atomic configuration                                                         
   12 entries                                                                   
     n  l   j            E        occ.                                          
     1  0  0.50    -25324.9161   2.0000                                         
     2  0  0.50     -3728.5341   2.0000                                         
     2  1  1.50     -3344.0404   6.0000                                         
     3  0  0.50      -683.5581   2.0000                                         
     3  1  1.50      -557.3225   6.0000                                         
     3  2  2.50      -358.3853  10.0000                                         
     4  0  0.50       -95.0341   2.0000                                         
     4  1  1.50       -58.5511   6.0000                                         
     4  2  2.50        -7.4440  10.0000                                         
     5  0  0.50        -4.4045   1.0000                                         
     5  1  0.50        -1.3606   0.0000                                         
     4  3  2.50        -1.3606   0.0000                                         
   Description                                                                  
     l       E           TYP  RCUT    TYP  RCUT                                 
     2     -7.4439781     23  2.400                                             
     2     -8.8045607     23  2.400                                             
     0     -4.4044681     23  2.400                                             
     0      1.9520038     23  2.400                                             
     1     -1.3605826     23  2.500                                             
     1     27.2116520     23  2.500                                             
     3     -4.0817478     23  2.400                                             
  local pseudopotential read in
  partial core-charges read in
  partial kinetic energy density read in
  atomic valenz-charges read in
  non local Contribution for L=           2  read in
    real space projection operators read in
  non local Contribution for L=           2  read in
    real space projection operators read in
  non local Contribution for L=           0  read in
    real space projection operators read in
  non local Contribution for L=           0  read in
    real space projection operators read in
  non local Contribution for L=           1  read in
    real space projection operators read in
  non local Contribution for L=           1  read in
    real space projection operators read in
    PAW grid and wavefunctions read in
 
   number of l-projection  operators is LMAX  =           6
   number of lm-projection operators is LMMAX =          18
 
  PAW_PBE Ag 02Apr2005                  :
 energy of atom  1       EATOM=-1037.2675
 kinetic energy error for atom=    0.0272 (will be added to EATOM!!)
 
 
 POSCAR: Ag                                      
  positions in cartesian coordinates
  No initial velocities read in
 exchange correlation table for  LEXCH =        8
   RHO(1)=    0.500       N(1)  =     2000
   RHO(2)=  100.500       N(2)  =     4000

 VTST: version 3.1, (03/28/14)

 CHAIN: initializing optimizer
 
 OPT: Using VASP Conjugate-Gradient optimizer
 CHAIN: Read ICHAIN            0
 
 POSCAR: Ag                                      
  positions in cartesian coordinates
  No initial velocities read in
 


--------------------------------------------------------------------------------------------------------


 ion  position               nearest neighbor table
   1  0.000  0.000  0.000-
 
  LATTYP: Found a face centered cubic cell.
 ALAT       =     3.6810000000
  
  Lattice vectors:
  
 A1 = (   2.6028600615,   0.0000000000,   0.0000000000)
 A2 = (   1.3014300308,   2.2541429358,   0.0000000000)
 A3 = (   1.3014300308,   0.7513809786,   2.1252263409)


Analysis of symmetry for initial positions (statically):
=====================================================================
 Subroutine PRICEL returns:
 Original cell was already a primitive cell.
 

 Routine SETGRP: Setting up the symmetry group for a 
 face centered cubic supercell.


 Subroutine GETGRP returns: Found 48 space group operations
 (whereof 48 operations were pure point group operations)
 out of a pool of 48 trial point group operations.


The static configuration has the point symmetry O_h .


Analysis of symmetry for dynamics (positions and initial velocities):
=====================================================================
 Subroutine PRICEL returns:
 Original cell was already a primitive cell.
 

 Routine SETGRP: Setting up the symmetry group for a 
 face centered cubic supercell.


 Subroutine GETGRP returns: Found 48 space group operations
 (whereof 48 operations were pure point group operations)
 out of a pool of 48 trial point group operations.


The dynamic configuration has the point symmetry O_h .
 
 
 KPOINTS: KPOINTS created by Atomic Simulation Env

Automatic generation of k-mesh.
Space group operators:
 irot       det(A)        alpha          n_x          n_y          n_z        tau_x        tau_y        tau_z
    1     1.000000     0.000000     1.000000     0.000000     0.000000     0.000000     0.000000     0.000000
    2    -1.000000     0.000000     1.000000     0.000000     0.000000     0.000000     0.000000     0.000000
    3     1.000000   120.000000    -0.816497    -0.471405    -0.333333     0.000000     0.000000     0.000000
    4    -1.000000   120.000000    -0.816497    -0.471405    -0.333333     0.000000     0.000000     0.000000
    5     1.000000   120.000000     0.816497     0.471405     0.333333     0.000000     0.000000     0.000000
    6    -1.000000   120.000000     0.816497     0.471405     0.333333     0.000000     0.000000     0.000000
    7     1.000000    90.000000    -0.707107    -0.408248     0.577350     0.000000     0.000000     0.000000
    8    -1.000000    90.000000    -0.707107    -0.408248     0.577350     0.000000     0.000000     0.000000
    9     1.000000   180.000000     1.000000     0.000000     0.000000     0.000000     0.000000     0.000000
   10    -1.000000   180.000000     1.000000     0.000000     0.000000     0.000000     0.000000     0.000000
   11     1.000000    90.000000     0.707107    -0.408248     0.577350     0.000000     0.000000     0.000000
   12    -1.000000    90.000000     0.707107    -0.408248     0.577350     0.000000     0.000000     0.000000
   13     1.000000   180.000000     0.707107     0.408248    -0.577350     0.000000     0.000000     0.000000
   14    -1.000000   180.000000     0.707107     0.408248    -0.577350     0.000000     0.000000     0.000000
   15     1.000000   120.000000     0.816497    -0.471405    -0.333333     0.000000     0.000000     0.000000
   16    -1.000000   120.000000     0.816497    -0.471405    -0.333333     0.000000     0.000000     0.000000
   17     1.000000   120.000000     0.000000    -0.942809     0.333333     0.000000     0.000000     0.000000
   18    -1.000000   120.000000     0.000000    -0.942809     0.333333     0.000000     0.000000     0.000000
   19     1.000000    90.000000     0.707107     0.408248    -0.577350     0.000000     0.000000     0.000000
   20    -1.000000    90.000000     0.707107     0.408248    -0.577350     0.000000     0.000000     0.000000
   21     1.000000    90.000000     0.000000    -0.816497    -0.577350     0.000000     0.000000     0.000000
   22    -1.000000    90.000000     0.000000    -0.816497    -0.577350     0.000000     0.000000     0.000000
   23     1.000000   180.000000     0.500000     0.866025     0.000000     0.000000     0.000000     0.000000
   24    -1.000000   180.000000     0.500000     0.866025     0.000000     0.000000     0.000000     0.000000
   25     1.000000   120.000000     0.000000     0.942809    -0.333333     0.000000     0.000000     0.000000
   26    -1.000000   120.000000     0.000000     0.942809    -0.333333     0.000000     0.000000     0.000000
   27     1.000000   120.000000     0.000000     0.000000    -1.000000     0.000000     0.000000     0.000000
   28    -1.000000   120.000000     0.000000     0.000000    -1.000000     0.000000     0.000000     0.000000
   29     1.000000   180.000000     0.000000    -0.816497    -0.577350     0.000000     0.000000     0.000000
   30    -1.000000   180.000000     0.000000    -0.816497    -0.577350     0.000000     0.000000     0.000000
   31     1.000000    90.000000    -0.707107     0.408248    -0.577350     0.000000     0.000000     0.000000
   32    -1.000000    90.000000    -0.707107     0.408248    -0.577350     0.000000     0.000000     0.000000
   33     1.000000   179.999999     0.500000     0.288675     0.816497     0.000000     0.000000     0.000000
   34    -1.000000   179.999999     0.500000     0.288675     0.816497     0.000000     0.000000     0.000000
   35     1.000000    90.000000     0.000000     0.816497     0.577350     0.000000     0.000000     0.000000
   36    -1.000000    90.000000     0.000000     0.816497     0.577350     0.000000     0.000000     0.000000
   37     1.000000   120.000000    -0.816497     0.471405     0.333333     0.000000     0.000000     0.000000
   38    -1.000000   120.000000    -0.816497     0.471405     0.333333     0.000000     0.000000     0.000000
   39     1.000000   180.000000    -0.707107     0.408248    -0.577350     0.000000     0.000000     0.000000
   40    -1.000000   180.000000    -0.707107     0.408248    -0.577350     0.000000     0.000000     0.000000
   41     1.000000   120.000000     0.000000     0.000000     1.000000     0.000000     0.000000     0.000000
   42    -1.000000   120.000000     0.000000     0.000000     1.000000     0.000000     0.000000     0.000000
   43     1.000000   180.000000     0.000000    -0.577350     0.816497     0.000000     0.000000     0.000000
   44    -1.000000   180.000000     0.000000    -0.577350     0.816497     0.000000     0.000000     0.000000
   45     1.000000   180.000000    -0.500000     0.866025     0.000000     0.000000     0.000000     0.000000
   46    -1.000000   180.000000    -0.500000     0.866025     0.000000     0.000000     0.000000     0.000000
   47     1.000000   179.999999    -0.500000     0.288675     0.816497     0.000000     0.000000     0.000000
   48    -1.000000   179.999999    -0.500000     0.288675     0.816497     0.000000     0.000000     0.000000
 
 Subroutine IBZKPT returns following result:
 ===========================================
 
 Found     60 irreducible k-points:
 
 Following reciprocal coordinates:
            Coordinates               Weight
  0.062500  0.062500  0.062500     96.000000
  0.187500  0.062500  0.062500    288.000000
  0.312500  0.062500  0.062500    288.000000
  0.437500  0.062500  0.062500    288.000000
 -0.437500  0.062500  0.062500    288.000000
 -0.312500  0.062500  0.062500    288.000000
 -0.187500  0.062500  0.062500    288.000000
 -0.062500  0.062500  0.062500    288.000000
  0.187500  0.187500  0.062500    288.000000
  0.312500  0.187500  0.062500    576.000000
  0.437500  0.187500  0.062500    576.000000
 -0.437500  0.187500  0.062500    576.000000
 -0.312500  0.187500  0.062500    576.000000
 -0.187500  0.187500  0.062500    576.000000
 -0.062500  0.187500  0.062500    576.000000
  0.312500  0.312500  0.062500    288.000000
  0.437500  0.312500  0.062500    576.000000
 -0.437500  0.312500  0.062500    576.000000
 -0.312500  0.312500  0.062500    576.000000
 -0.187500  0.312500  0.062500    576.000000
 -0.062500  0.312500  0.062500    576.000000
  0.437500  0.437500  0.062500    288.000000
 -0.437500  0.437500  0.062500    576.000000
 -0.312500  0.437500  0.062500    576.000000
 -0.187500  0.437500  0.062500    576.000000
 -0.062500  0.437500  0.062500    576.000000
 -0.437500 -0.437500  0.062500    288.000000
 -0.312500 -0.437500  0.062500    576.000000
 -0.187500 -0.437500  0.062500    576.000000
 -0.312500 -0.312500  0.062500    288.000000
 -0.187500 -0.312500  0.062500    576.000000
 -0.187500 -0.187500  0.062500    288.000000
  0.187500  0.187500  0.187500     96.000000
  0.312500  0.187500  0.187500    288.000000
  0.437500  0.187500  0.187500    288.000000
 -0.437500  0.187500  0.187500    288.000000
 -0.312500  0.187500  0.187500    288.000000
 -0.187500  0.187500  0.187500    288.000000
  0.312500  0.312500  0.187500    288.000000
  0.437500  0.312500  0.187500    576.000000
 -0.437500  0.312500  0.187500    576.000000
 -0.312500  0.312500  0.187500    576.000000
 -0.187500  0.312500  0.187500    576.000000
  0.437500  0.437500  0.187500    288.000000
 -0.437500  0.437500  0.187500    576.000000
 -0.312500  0.437500  0.187500    576.000000
 -0.187500  0.437500  0.187500    576.000000
 -0.437500 -0.437500  0.187500    288.000000
 -0.312500 -0.437500  0.187500    576.000000
 -0.312500 -0.312500  0.187500    288.000000
  0.312500  0.312500  0.312500     96.000000
  0.437500  0.312500  0.312500    288.000000
 -0.437500  0.312500  0.312500    288.000000
 -0.312500  0.312500  0.312500    288.000000
  0.437500  0.437500  0.312500    288.000000
 -0.437500  0.437500  0.312500    576.000000
 -0.312500  0.437500  0.312500    576.000000
 -0.437500 -0.437500  0.312500    288.000000
  0.437500  0.437500  0.437500     96.000000
 -0.437500  0.437500  0.437500    288.000000
 
 Following cartesian coordinates:
            Coordinates               Weight
  0.024012  0.013863  0.009803     96.000000
  0.072036 -0.013863 -0.009803    288.000000
  0.120060 -0.041590 -0.029409    288.000000
  0.168084 -0.069317 -0.049014    288.000000
 -0.168084  0.124770  0.088226    288.000000
 -0.120060  0.097044  0.068620    288.000000
 -0.072036  0.069317  0.049014    288.000000
 -0.024012  0.041590  0.029409    288.000000
  0.072036  0.041590 -0.029409    288.000000
  0.120060  0.013863 -0.049014    576.000000
  0.168084 -0.013863 -0.068620    576.000000
 -0.168084  0.180224  0.068620    576.000000
 -0.120060  0.152497  0.049014    576.000000
 -0.072036  0.124770  0.029409    576.000000
 -0.024012  0.097044  0.009803    576.000000
  0.120060  0.069317 -0.068620    288.000000
  0.168084  0.041590 -0.088226    576.000000
 -0.168084  0.235677  0.049014    576.000000
 -0.120060  0.207950  0.029409    576.000000
 -0.072036  0.180224  0.009803    576.000000
 -0.024012  0.152497 -0.009803    576.000000
  0.168084  0.097044 -0.107832    288.000000
 -0.168084  0.291131  0.029409    576.000000
 -0.120060  0.263404  0.009803    576.000000
 -0.072036  0.235677 -0.009803    576.000000
 -0.024012  0.207950 -0.029409    576.000000
 -0.168084 -0.097044  0.166649    288.000000
 -0.120060 -0.124770  0.147043    576.000000
 -0.072036 -0.152497  0.127437    576.000000
 -0.120060 -0.069317  0.127437    288.000000
 -0.072036 -0.097044  0.107832    576.000000
 -0.072036 -0.041590  0.088226    288.000000
  0.072036  0.041590  0.029409     96.000000
  0.120060  0.013863  0.009803    288.000000
  0.168084 -0.013863 -0.009803    288.000000
 -0.168084  0.180224  0.127437    288.000000
 -0.120060  0.152497  0.107832    288.000000
 -0.072036  0.124770  0.088226    288.000000
  0.120060  0.069317 -0.009803    288.000000
  0.168084  0.041590 -0.029409    576.000000
 -0.168084  0.235677  0.107832    576.000000
 -0.120060  0.207950  0.088226    576.000000
 -0.072036  0.180224  0.068620    576.000000
  0.168084  0.097044 -0.049014    288.000000
 -0.168084  0.291131  0.088226    576.000000
 -0.120060  0.263404  0.068620    576.000000
 -0.072036  0.235677  0.049014    576.000000
 -0.168084 -0.097044  0.225466    288.000000
 -0.120060 -0.124770  0.205860    576.000000
 -0.120060 -0.069317  0.186255    288.000000
  0.120060  0.069317  0.049014     96.000000
  0.168084  0.041590  0.029409    288.000000
 -0.168084  0.235677  0.166649    288.000000
 -0.120060  0.207950  0.147043    288.000000
  0.168084  0.097044  0.009803    288.000000
 -0.168084  0.291131  0.147043    576.000000
 -0.120060  0.263404  0.127437    576.000000
 -0.168084 -0.097044  0.284283    288.000000
  0.168084  0.097044  0.068620     96.000000
 -0.168084  0.291131  0.205860    288.000000
 


--------------------------------------------------------------------------------------------------------




 Dimension of arrays:
   k-points           NKPTS =     60   k-points in BZ     NKDIM =     60   number of bands    NBANDS=      9
   number of dos      NEDOS =    301   number of ions     NIONS =      1
   non local maximal  LDIM  =      6   non local SUM 2l+1 LMDIM =     18
   total plane-waves  NPLWV =   1728
   max r-space proj   IRMAX =      1   max aug-charges    IRDMAX=   7013
   dimension x,y,z NGX =    12 NGY =   12 NGZ =   12
   dimension x,y,z NGXF=    24 NGYF=   24 NGZF=   24
   support grid    NGXF=    24 NGYF=   24 NGZF=   24
   ions per type =               1
 NGX,Y,Z   is equivalent  to a cutoff of   7.66,  7.66,  7.66 a.u.
 NGXF,Y,Z  is equivalent  to a cutoff of  15.33, 15.33, 15.33 a.u.


 I would recommend the setting:
   dimension x,y,z NGX =    12 NGY =   12 NGZ =   12
 SYSTEM =  unknown system                          
 POSCAR =  Ag                                      

 Startparameter for this run:
   NWRITE =      2    write-flag & timer
   PREC   = normal    normal or accurate (medium, high low for compatibility)
   ISTART =      0    job   : 0-new  1-cont  2-samecut
   ICHARG =      2    charge: 1-file 2-atom 10-const
   ISPIN  =      1    spin polarized calculation?
   LNONCOLLINEAR =      F non collinear calculations
   LSORBIT =      F    spin-orbit coupling
   INIWAV =      1    electr: 0-lowe 1-rand  2-diag
   LASPH  =      F    aspherical Exc in radial PAW
   METAGGA=      F    non-selfconsistent MetaGGA calc.

 Electronic Relaxation 1
   ENCUT  =  350.0 eV  25.72 Ry    5.07 a.u.   3.97  3.97  3.97*2*pi/ulx,y,z
   ENINI  =  350.0     initial cutoff
   ENAUG  =  412.5 eV  augmentation charge cutoff
   NELM   =     60;   NELMIN=  2; NELMDL= -5     # of ELM steps 
   EDIFF  = 0.1E-03   stopping-criterion for ELM
   LREAL  =      F    real-space projection
   NLSPLINE    = F    spline interpolate recip. space projectors
   LCOMPAT=      F    compatible to vasp.4.4
   GGA_COMPAT  = T    GGA compatible to vasp.4.4-vasp.4.6
   LMAXPAW     = -100 max onsite density
   LMAXMIX     =    2 max onsite mixed and CHGCAR
   VOSKOWN=      0    Vosko Wilk Nusair interpolation
   ROPT   =    0.00000
 Ionic relaxation
   EDIFFG = 0.1E-02   stopping-criterion for IOM
   NSW    =     30    number of steps for IOM
   NBLOCK =      1;   KBLOCK =     30    inner block; outer block 
   IBRION =      2    ionic relax: 0-MD 1-quasi-New 2-CG
   NFREE  =      1    steps in history (QN), initial steepest desc. (CG)
   ISIF   =      2    stress and relaxation
   IWAVPR =     11    prediction:  0-non 1-charg 2-wave 3-comb
   ISYM   =      2    0-nonsym 1-usesym 2-fastsym
   LCORR  =      T    Harris-Foulkes like correction to forces

   POTIM  = 0.5000    time-step for ionic-motion
   TEIN   =    0.0    initial temperature
   TEBEG  =    0.0;   TEEND  =   0.0 temperature during run
   SMASS  =  -3.00    Nose mass-parameter (am)
   estimated Nose-frequenzy (Omega)   =  0.10E-29 period in steps =****** mass=  -0.155E-27a.u.
   SCALEE = 1.0000    scale energy and forces
   NPACO  =    256;   APACO  = 16.0  distance and # of slots for P.C.
   PSTRESS=    0.0 pullay stress

  Mass of Ions in am
   POMASS = 107.87
  Ionic Valenz
   ZVAL   =  11.00
  Atomic Wigner-Seitz radii
   RWIGS  =  -1.00
  virtual crystal weights 
   VCA    =   1.00
   NELECT =      11.0000    total number of electrons
   NUPDOWN=      -1.0000    fix difference up-down

 DOS related values:
   EMIN   =  10.00;   EMAX   =-10.00  energy-range for DOS
   EFERMI =   0.00
   ISMEAR =     1;   SIGMA  =   0.20  broadening in eV -4-tet -1-fermi 0-gaus

 Electronic relaxation 2 (details)
   IALGO  =     38    algorithm
   LDIAG  =      T    sub-space diagonalisation (order eigenvalues)
   LSUBROT=      F    optimize rotation matrix (better conditioning)
   TURBO    =      0    0=normal 1=particle mesh
   IRESTART =      0    0=no restart 2=restart with 2 vectors
   NREBOOT  =      0    no. of reboots
   NMIN     =      0    reboot dimension
   EREF     =   0.00    reference energy to select bands
   IMIX   =      4    mixing-type and parameters
     AMIX     =   0.40;   BMIX     =  1.00
     AMIX_MAG =   1.60;   BMIX_MAG =  1.00
     AMIN     =   0.10
     WC   =   100.;   INIMIX=   1;  MIXPRE=   1;  MAXMIX= -45

 Intra band minimization:
   WEIMIN = 0.0010     energy-eigenvalue tresh-hold
   EBREAK =  0.28E-05  absolut break condition
   DEPER  =   0.30     relativ break condition  

   TIME   =   0.40     timestep for ELM

  volume/ion in A,a.u.               =      12.47        84.15
  Fermi-wavevector in a.u.,A,eV,Ry     =   1.570097  2.967054 33.541158  2.465206
  Thomas-Fermi vector in A             =   2.671881
 
 Write flags
   LWAVE  =      T    write WAVECAR
   LCHARG =      T    write CHGCAR
   LVTOT  =      F    write LOCPOT, total local potential
   LVHAR  =      F    write LOCPOT, Hartree potential only
   LELF   =      F    write electronic localiz. function (ELF)
   LORBIT =      0    0 simple, 1 ext, 2 COOP (PROOUT)


 Dipole corrections
   LMONO  =      F    monopole corrections only (constant potential shift)
   LDIPOL =      F    correct potential (dipole corrections)
   IDIPOL =      0    1-x, 2-y, 3-z, 4-all directions 
   EPSILON=  1.0000000 bulk dielectric constant

 Exchange correlation treatment:
   GGA     =    --    GGA type
   LEXCH   =     8    internal setting for exchange type
   VOSKOWN=      0    Vosko Wilk Nusair interpolation
   LHFCALC =     F    Hartree Fock is set to
   LHFONE  =     F    Hartree Fock one center treatment
   AEXX    =    0.0000 exact exchange contribution

 Linear response parameters
   LEPSILON=     F    determine dielectric tensor
   LRPA    =     F    only Hartree local field effects (RPA)
   LNABLA  =     F    use nabla operator in PAW spheres
   LVEL    =     F    velocity operator in full k-point grid
   LINTERFAST=   F  fast interpolation
   KINTER  =     0    interpolate to denser k-point grid
   CSHIFT  =0.1000    complex shift for real part using Kramers Kronig
   OMEGAMAX=  -1.0    maximum frequency
   DEG_THRESHOLD= 0.2000000E-02 threshold for treating states as degnerate
   RTIME   =    0.100 relaxation time in fs

 Orbital magnetization related:
   ORBITALMAG=     F  switch on orbital magnetization
   LCHIMAG   =     F  perturbation theory with respect to B field
   DQ        =  0.001000  dq finite difference perturbation B field



--------------------------------------------------------------------------------------------------------


 conjugate gradient relaxation of ions
 charge density and potential will be updated during run
 non-spin polarized calculation
 Variant of blocked Davidson
 Davidson routine will perform the subspace rotation
 perform sub-space diagonalisation
    after iterative eigenvector-optimisation
 modified Broyden-mixing scheme, WC =      100.0
 initial mixing is a Kerker type mixing with AMIX =  0.4000 and BMIX =      1.0000
 Hartree-type preconditioning will be used
 using additional bands            3
 reciprocal scheme for non local part
 use partial core corrections
 calculate Harris-corrections to forces 
   (improved forces if not selfconsistent)
 use gradient corrections 
 use of overlap-Matrix (Vanderbilt PP)
 Methfessel and Paxton  Order N= 1 SIGMA  =   0.20


--------------------------------------------------------------------------------------------------------


  energy-cutoff  :      350.00
  volume of cell :       12.47
      direct lattice vectors                 reciprocal lattice vectors
     2.602860062  0.000000000  0.000000000     0.384192763 -0.221813795 -0.156846039
     1.301430031  2.254142936  0.000000000     0.000000000  0.443627591 -0.156846039
     1.301430031  0.751380979  2.125226341     0.000000000  0.000000000  0.470538117

  length of vectors
     2.602860062  2.602860062  2.602860062     0.470538117  0.470538117  0.470538117


 
 k-points in units of 2pi/SCALE and weight: KPOINTS created by Atomic Simulation Env
   0.02401205  0.01386336  0.00980288       0.004
   0.07203614 -0.01386336 -0.00980288       0.012
   0.12006024 -0.04159009 -0.02940863       0.012
   0.16808433 -0.06931681 -0.04901439       0.012
  -0.16808433  0.12477026  0.08822590       0.012
  -0.12006024  0.09704354  0.06862014       0.012
  -0.07203614  0.06931681  0.04901439       0.012
  -0.02401205  0.04159009  0.02940863       0.012
   0.07203614  0.04159009 -0.02940863       0.012
   0.12006024  0.01386336 -0.04901439       0.023
   0.16808433 -0.01386336 -0.06862014       0.023
  -0.16808433  0.18022371  0.06862014       0.023
  -0.12006024  0.15249698  0.04901439       0.023
  -0.07203614  0.12477026  0.02940863       0.023
  -0.02401205  0.09704354  0.00980288       0.023
   0.12006024  0.06931681 -0.06862014       0.012
   0.16808433  0.04159009 -0.08822590       0.023
  -0.16808433  0.23567716  0.04901439       0.023
  -0.12006024  0.20795043  0.02940863       0.023
  -0.07203614  0.18022371  0.00980288       0.023
  -0.02401205  0.15249698 -0.00980288       0.023
   0.16808433  0.09704354 -0.10783165       0.012
  -0.16808433  0.29113061  0.02940863       0.023
  -0.12006024  0.26340388  0.00980288       0.023
  -0.07203614  0.23567716 -0.00980288       0.023
  -0.02401205  0.20795043 -0.02940863       0.023
  -0.16808433 -0.09704354  0.16664892       0.012
  -0.12006024 -0.12477026  0.14704316       0.023
  -0.07203614 -0.15249698  0.12743741       0.023
  -0.12006024 -0.06931681  0.12743741       0.012
  -0.07203614 -0.09704354  0.10783165       0.023
  -0.07203614 -0.04159009  0.08822590       0.012
   0.07203614  0.04159009  0.02940863       0.004
   0.12006024  0.01386336  0.00980288       0.012
   0.16808433 -0.01386336 -0.00980288       0.012
  -0.16808433  0.18022371  0.12743741       0.012
  -0.12006024  0.15249698  0.10783165       0.012
  -0.07203614  0.12477026  0.08822590       0.012
   0.12006024  0.06931681 -0.00980288       0.012
   0.16808433  0.04159009 -0.02940863       0.023
  -0.16808433  0.23567716  0.10783165       0.023
  -0.12006024  0.20795043  0.08822590       0.023
  -0.07203614  0.18022371  0.06862014       0.023
   0.16808433  0.09704354 -0.04901439       0.012
  -0.16808433  0.29113061  0.08822590       0.023
  -0.12006024  0.26340388  0.06862014       0.023
  -0.07203614  0.23567716  0.04901439       0.023
  -0.16808433 -0.09704354  0.22546618       0.012
  -0.12006024 -0.12477026  0.20586043       0.023
  -0.12006024 -0.06931681  0.18625467       0.012
   0.12006024  0.06931681  0.04901439       0.004
   0.16808433  0.04159009  0.02940863       0.012
  -0.16808433  0.23567716  0.16664892       0.012
  -0.12006024  0.20795043  0.14704316       0.012
   0.16808433  0.09704354  0.00980288       0.012
  -0.16808433  0.29113061  0.14704316       0.023
  -0.12006024  0.26340388  0.12743741       0.023
  -0.16808433 -0.09704354  0.28428345       0.012
   0.16808433  0.09704354  0.06862014       0.004
  -0.16808433  0.29113061  0.20586043       0.012
 
 k-points in reciprocal lattice and weights: KPOINTS created by Atomic Simulation Env
   0.06250000  0.06250000  0.06250000       0.004
   0.18750000  0.06250000  0.06250000       0.012
   0.31250000  0.06250000  0.06250000       0.012
   0.43750000  0.06250000  0.06250000       0.012
  -0.43750000  0.06250000  0.06250000       0.012
  -0.31250000  0.06250000  0.06250000       0.012
  -0.18750000  0.06250000  0.06250000       0.012
  -0.06250000  0.06250000  0.06250000       0.012
   0.18750000  0.18750000  0.06250000       0.012
   0.31250000  0.18750000  0.06250000       0.023
   0.43750000  0.18750000  0.06250000       0.023
  -0.43750000  0.18750000  0.06250000       0.023
  -0.31250000  0.18750000  0.06250000       0.023
  -0.18750000  0.18750000  0.06250000       0.023
  -0.06250000  0.18750000  0.06250000       0.023
   0.31250000  0.31250000  0.06250000       0.012
   0.43750000  0.31250000  0.06250000       0.023
  -0.43750000  0.31250000  0.06250000       0.023
  -0.31250000  0.31250000  0.06250000       0.023
  -0.18750000  0.31250000  0.06250000       0.023
  -0.06250000  0.31250000  0.06250000       0.023
   0.43750000  0.43750000  0.06250000       0.012
  -0.43750000  0.43750000  0.06250000       0.023
  -0.31250000  0.43750000  0.06250000       0.023
  -0.18750000  0.43750000  0.06250000       0.023
  -0.06250000  0.43750000  0.06250000       0.023
  -0.43750000 -0.43750000  0.06250000       0.012
  -0.31250000 -0.43750000  0.06250000       0.023
  -0.18750000 -0.43750000  0.06250000       0.023
  -0.31250000 -0.31250000  0.06250000       0.012
  -0.18750000 -0.31250000  0.06250000       0.023
  -0.18750000 -0.18750000  0.06250000       0.012
   0.18750000  0.18750000  0.18750000       0.004
   0.31250000  0.18750000  0.18750000       0.012
   0.43750000  0.18750000  0.18750000       0.012
  -0.43750000  0.18750000  0.18750000       0.012
  -0.31250000  0.18750000  0.18750000       0.012
  -0.18750000  0.18750000  0.18750000       0.012
   0.31250000  0.31250000  0.18750000       0.012
   0.43750000  0.31250000  0.18750000       0.023
  -0.43750000  0.31250000  0.18750000       0.023
  -0.31250000  0.31250000  0.18750000       0.023
  -0.18750000  0.31250000  0.18750000       0.023
   0.43750000  0.43750000  0.18750000       0.012
  -0.43750000  0.43750000  0.18750000       0.023
  -0.31250000  0.43750000  0.18750000       0.023
  -0.18750000  0.43750000  0.18750000       0.023
  -0.43750000 -0.43750000  0.18750000       0.012
  -0.31250000 -0.43750000  0.18750000       0.023
  -0.31250000 -0.31250000  0.18750000       0.012
   0.31250000  0.31250000  0.31250000       0.004
   0.43750000  0.31250000  0.31250000       0.012
  -0.43750000  0.31250000  0.31250000       0.012
  -0.31250000  0.31250000  0.31250000       0.012
   0.43750000  0.43750000  0.31250000       0.012
  -0.43750000  0.43750000  0.31250000       0.023
  -0.31250000  0.43750000  0.31250000       0.023
  -0.43750000 -0.43750000  0.31250000       0.012
   0.43750000  0.43750000  0.43750000       0.004
  -0.43750000  0.43750000  0.43750000       0.012
 
 position of ions in fractional coordinates (direct lattice) 
   0.00000000  0.00000000  0.00000000
 
 position of ions in cartesian coordinates  (Angst):
   0.00000000  0.00000000  0.00000000
 


--------------------------------------------------------------------------------------------------------


 k-point  1 :   0.0625 0.0625 0.0625  plane waves:     172
 k-point  2 :   0.1875 0.0625 0.0625  plane waves:     174
 k-point  3 :   0.3125 0.0625 0.0625  plane waves:     184
 k-point  4 :   0.4375 0.0625 0.0625  plane waves:     184
 k-point  5 :  -0.4375 0.0625 0.0625  plane waves:     178
 k-point  6 :  -0.3125 0.0625 0.0625  plane waves:     184
 k-point  7 :  -0.1875 0.0625 0.0625  plane waves:     182
 k-point  8 :  -0.0625 0.0625 0.0625  plane waves:     174
 k-point  9 :   0.1875 0.1875 0.0625  plane waves:     176
 k-point 10 :   0.3125 0.1875 0.0625  plane waves:     184
 k-point 11 :   0.4375 0.1875 0.0625  plane waves:     185
 k-point 12 :  -0.4375 0.1875 0.0625  plane waves:     185
 k-point 13 :  -0.3125 0.1875 0.0625  plane waves:     184
 k-point 14 :  -0.1875 0.1875 0.0625  plane waves:     185
 k-point 15 :  -0.0625 0.1875 0.0625  plane waves:     180
 k-point 16 :   0.3125 0.3125 0.0625  plane waves:     185
 k-point 17 :   0.4375 0.3125 0.0625  plane waves:     188
 k-point 18 :  -0.4375 0.3125 0.0625  plane waves:     185
 k-point 19 :  -0.3125 0.3125 0.0625  plane waves:     184
 k-point 20 :  -0.1875 0.3125 0.0625  plane waves:     187
 k-point 21 :  -0.0625 0.3125 0.0625  plane waves:     187
 k-point 22 :   0.4375 0.4375 0.0625  plane waves:     191
 k-point 23 :  -0.4375 0.4375 0.0625  plane waves:     189
 k-point 24 :  -0.3125 0.4375 0.0625  plane waves:     186
 k-point 25 :  -0.1875 0.4375 0.0625  plane waves:     184
 k-point 26 :  -0.0625 0.4375 0.0625  plane waves:     182
 k-point 27 :  -0.4375-0.4375 0.0625  plane waves:     190
 k-point 28 :  -0.3125-0.4375 0.0625  plane waves:     190
 k-point 29 :  -0.1875-0.4375 0.0625  plane waves:     187
 k-point 30 :  -0.3125-0.3125 0.0625  plane waves:     186
 k-point 31 :  -0.1875-0.3125 0.0625  plane waves:     185
 k-point 32 :  -0.1875-0.1875 0.0625  plane waves:     180
 k-point 33 :   0.1875 0.1875 0.1875  plane waves:     172
 k-point 34 :   0.3125 0.1875 0.1875  plane waves:     182
 k-point 35 :   0.4375 0.1875 0.1875  plane waves:     186
 k-point 36 :  -0.4375 0.1875 0.1875  plane waves:     181
 k-point 37 :  -0.3125 0.1875 0.1875  plane waves:     184
 k-point 38 :  -0.1875 0.1875 0.1875  plane waves:     189
 k-point 39 :   0.3125 0.3125 0.1875  plane waves:     184
 k-point 40 :   0.4375 0.3125 0.1875  plane waves:     183
 k-point 41 :  -0.4375 0.3125 0.1875  plane waves:     188
 k-point 42 :  -0.3125 0.3125 0.1875  plane waves:     187
 k-point 43 :  -0.1875 0.3125 0.1875  plane waves:     188
 k-point 44 :   0.4375 0.4375 0.1875  plane waves:     186
 k-point 45 :  -0.4375 0.4375 0.1875  plane waves:     191
 k-point 46 :  -0.3125 0.4375 0.1875  plane waves:     190
 k-point 47 :  -0.1875 0.4375 0.1875  plane waves:     190
 k-point 48 :  -0.4375-0.4375 0.1875  plane waves:     188
 k-point 49 :  -0.3125-0.4375 0.1875  plane waves:     192
 k-point 50 :  -0.3125-0.3125 0.1875  plane waves:     188
 k-point 51 :   0.3125 0.3125 0.3125  plane waves:     183
 k-point 52 :   0.4375 0.3125 0.3125  plane waves:     186
 k-point 53 :  -0.4375 0.3125 0.3125  plane waves:     184
 k-point 54 :  -0.3125 0.3125 0.3125  plane waves:     186
 k-point 55 :   0.4375 0.4375 0.3125  plane waves:     185
 k-point 56 :  -0.4375 0.4375 0.3125  plane waves:     187
 k-point 57 :  -0.3125 0.4375 0.3125  plane waves:     188
 k-point 58 :  -0.4375-0.4375 0.3125  plane waves:     182
 k-point 59 :   0.4375 0.4375 0.4375  plane waves:     180
 k-point 60 :  -0.4375 0.4375 0.4375  plane waves:     180

 maximum number of plane-waves:       192
 maximum index in each direction: 
   IXMAX=    4   IYMAX=    4   IZMAX=    3
   IXMIN=   -4   IYMIN=   -4   IZMIN=   -4

 WARNING: aliasing errors must be expected set NGX to  18 to avoid them
 WARNING: aliasing errors must be expected set NGY to  18 to avoid them
 WARNING: aliasing errors must be expected set NGZ to  16 to avoid them
 aliasing errors are usually negligible using standard VASP settings
 and one can safely disregard these warnings

 total amount of memory used by VASP on root node    34261. kBytes
========================================================================

   base      :      30000. kBytes
   nonl-proj :       1661. kBytes
   grid      :        771. kBytes
   one-center:         15. kBytes
   wavefun   :       1814. kBytes
 
     INWAV:  cpu time    0.00: real time    0.00
 Broyden mixing: mesh for mixing (old mesh)
   NGX =  7   NGY =  7   NGZ =  7
  (NGX  = 24   NGY  = 24   NGZ  = 24)
  gives a total of    343 points

 initial charge density was supplied:
 charge density of overlapping atoms calculated
 number of electron      11.0000000 magnetization 
 keeping initial charge density in first step


--------------------------------------------------------------------------------------------------------


 Maximum index for augmentation-charges         6603 (set IRDMAX)


--------------------------------------------------------------------------------------------------------


 First call to EWALD:  gamma=   0.764
 Maximum number of real-space cells 3x 3x 3
 Maximum number of reciprocal cells 3x 3x 3

    FEWALD:  cpu time    0.00: real time    0.00


----------------------------------------- Iteration    1(   1)  ---------------------------------------


    POTLOK:  cpu time    0.01: real time    0.01
    SETDIJ:  cpu time    0.01: real time    0.01
     EDDAV:  cpu time    0.36: real time    0.37
       DOS:  cpu time    0.00: real time    0.01
    --------------------------------------------
      LOOP:  cpu time    0.39: real time    0.41

 eigenvalue-minimisations  :  1160
 total energy-change (2. order) : 0.3200834E+02  (-0.4795964E+03)
 number of electron      11.0000000 magnetization 
 augmentation part       11.0000000 magnetization 

 Free energy of the ion-electron system (eV)
  ---------------------------------------------------
  alpha Z        PSCENC =        68.21450308
  Ewald energy   TEWEN  =     -1085.10535231
  -Hartree energ DENC   =      -155.90931243
  -exchange      EXHF   =         0.00000000
  -V(xc)+E(xc)   XCENC  =        -9.34947909
  PAW double counting   =      1003.46214933     -957.34927423
  entropy T*S    EENTRO =        -0.00390590
  eigenvalues    EBANDS =       130.80872957
  atomic energy  EATOM  =      1037.24027811
  ---------------------------------------------------
  free energy    TOTEN  =        32.00833613 eV

  energy without entropy =       32.01224203  energy(sigma->0) =       32.00963809


--------------------------------------------------------------------------------------------------------




----------------------------------------- Iteration    1(   2)  ---------------------------------------


     EDDAV:  cpu time    0.34: real time    0.34
       DOS:  cpu time    0.00: real time    0.00
    --------------------------------------------
      LOOP:  cpu time    0.34: real time    0.39

 eigenvalue-minimisations  :  1117
 total energy-change (2. order) :-0.3380024E+02  (-0.3284480E+02)
 number of electron      11.0000000 magnetization 
 augmentation part       11.0000000 magnetization 

 Free energy of the ion-electron system (eV)
  ---------------------------------------------------
  alpha Z        PSCENC =        68.21450308
  Ewald energy   TEWEN  =     -1085.10535231
  -Hartree energ DENC   =      -155.90931243
  -exchange      EXHF   =         0.00000000
  -V(xc)+E(xc)   XCENC  =        -9.34947909
  PAW double counting   =      1003.46214933     -957.34927423
  entropy T*S    EENTRO =         0.00072290
  eigenvalues    EBANDS =        97.00386157
  atomic energy  EATOM  =      1037.24027811
  ---------------------------------------------------
  free energy    TOTEN  =        -1.79190307 eV

  energy without entropy =       -1.79262598  energy(sigma->0) =       -1.79214404


--------------------------------------------------------------------------------------------------------




----------------------------------------- Iteration    1(   3)  ---------------------------------------


     EDDAV:  cpu time    0.38: real time    0.38
       DOS:  cpu time    0.00: real time    0.00
    --------------------------------------------
      LOOP:  cpu time    0.38: real time    0.40

 eigenvalue-minimisations  :  1286
 total energy-change (2. order) :-0.2190885E+00  (-0.2190604E+00)
 number of electron      11.0000000 magnetization 
 augmentation part       11.0000000 magnetization 

 Free energy of the ion-electron system (eV)
  ---------------------------------------------------
  alpha Z        PSCENC =        68.21450308
  Ewald energy   TEWEN  =     -1085.10535231
  -Hartree energ DENC   =      -155.90931243
  -exchange      EXHF   =         0.00000000
  -V(xc)+E(xc)   XCENC  =        -9.34947909
  PAW double counting   =      1003.46214933     -957.34927423
  entropy T*S    EENTRO =         0.00075290
  eigenvalues    EBANDS =        96.78474310
  atomic energy  EATOM  =      1037.24027811
  ---------------------------------------------------
  free energy    TOTEN  =        -2.01099154 eV

  energy without entropy =       -2.01174444  energy(sigma->0) =       -2.01124251


--------------------------------------------------------------------------------------------------------




----------------------------------------- Iteration    1(   4)  ---------------------------------------


     EDDAV:  cpu time    0.38: real time    0.38
       DOS:  cpu time    0.00: real time    0.00
    --------------------------------------------
      LOOP:  cpu time    0.39: real time    0.39

 eigenvalue-minimisations  :  1218
 total energy-change (2. order) :-0.3548920E-03  (-0.3548887E-03)
 number of electron      11.0000000 magnetization 
 augmentation part       11.0000000 magnetization 

 Free energy of the ion-electron system (eV)
  ---------------------------------------------------
  alpha Z        PSCENC =        68.21450308
  Ewald energy   TEWEN  =     -1085.10535231
  -Hartree energ DENC   =      -155.90931243
  -exchange      EXHF   =         0.00000000
  -V(xc)+E(xc)   XCENC  =        -9.34947909
  PAW double counting   =      1003.46214933     -957.34927423
  entropy T*S    EENTRO =         0.00075291
  eigenvalues    EBANDS =        96.78438820
  atomic energy  EATOM  =      1037.24027811
  ---------------------------------------------------
  free energy    TOTEN  =        -2.01134644 eV

  energy without entropy =       -2.01209935  energy(sigma->0) =       -2.01159741


--------------------------------------------------------------------------------------------------------




----------------------------------------- Iteration    1(   5)  ---------------------------------------


     EDDAV:  cpu time    0.35: real time    0.35
       DOS:  cpu time    0.00: real time    0.00
    CHARGE:  cpu time    0.03: real time    0.03
    MIXING:  cpu time    0.00: real time    0.00
    --------------------------------------------
      LOOP:  cpu time    0.38: real time    0.41

 eigenvalue-minimisations  :  1056
 total energy-change (2. order) :-0.1862429E-05  (-0.1862422E-05)
 number of electron      10.9999938 magnetization 
 augmentation part        5.0260201 magnetization 

 Broyden mixing:
  rms(total) = 0.13186E+01    rms(broyden)= 0.13186E+01
  rms(prec ) = 0.19147E+01
  weight for this iteration     100.00

 Free energy of the ion-electron system (eV)
  ---------------------------------------------------
  alpha Z        PSCENC =        68.21450308
  Ewald energy   TEWEN  =     -1085.10535231
  -Hartree energ DENC   =      -155.90931243
  -exchange      EXHF   =         0.00000000
  -V(xc)+E(xc)   XCENC  =        -9.34947909
  PAW double counting   =      1003.46214933     -957.34927423
  entropy T*S    EENTRO =         0.00075291
  eigenvalues    EBANDS =        96.78438634
  atomic energy  EATOM  =      1037.24027811
  ---------------------------------------------------
  free energy    TOTEN  =        -2.01134830 eV

  energy without entropy =       -2.01210121  energy(sigma->0) =       -2.01159927


--------------------------------------------------------------------------------------------------------




----------------------------------------- Iteration    1(   6)  ---------------------------------------


    POTLOK:  cpu time    0.01: real time    0.01
    SETDIJ:  cpu time    0.01: real time    0.03
     EDDAV:  cpu time    0.35: real time    0.35
       DOS:  cpu time    0.00: real time    0.00
    CHARGE:  cpu time    0.03: real time    0.03
    MIXING:  cpu time    0.00: real time    0.00
    --------------------------------------------
      LOOP:  cpu time    0.40: real time    0.45

 eigenvalue-minimisations  :  1097
 total energy-change (2. order) : 0.2642488E+00  (-0.7717341E-01)
 number of electron      10.9999936 magnetization 
 augmentation part        5.1531585 magnetization 

 Broyden mixing:
  rms(total) = 0.76118E+00    rms(broyden)= 0.76118E+00
  rms(prec ) = 0.86282E+00
  weight for this iteration     100.00

 eigenvalues of (default mixing * dielectric matrix)
  average eigenvalue GAMMA=   2.2038
  2.2038

 Free energy of the ion-electron system (eV)
  ---------------------------------------------------
  alpha Z        PSCENC =        68.21450308
  Ewald energy   TEWEN  =     -1085.10535231
  -Hartree energ DENC   =      -146.79511945
  -exchange      EXHF   =         0.00000000
  -V(xc)+E(xc)   XCENC  =        -9.66310971
  PAW double counting   =      1137.44528521    -1093.48758278
  entropy T*S    EENTRO =         0.00059198
  eigenvalues    EBANDS =        90.40340637
  atomic energy  EATOM  =      1037.24027811
  ---------------------------------------------------
  free energy    TOTEN  =        -1.74709951 eV

  energy without entropy =       -1.74769148  energy(sigma->0) =       -1.74729683


--------------------------------------------------------------------------------------------------------




----------------------------------------- Iteration    1(   7)  ---------------------------------------


    POTLOK:  cpu time    0.01: real time    0.02
    SETDIJ:  cpu time    0.01: real time    0.01
     EDDAV:  cpu time    0.39: real time    0.39
       DOS:  cpu time    0.00: real time    0.01
    CHARGE:  cpu time    0.03: real time    0.03
    MIXING:  cpu time    0.00: real time    0.00
    --------------------------------------------
      LOOP:  cpu time    0.45: real time    0.46

 eigenvalue-minimisations  :  1134
 total energy-change (2. order) : 0.3667771E-01  (-0.7268087E-02)
 number of electron      10.9999936 magnetization 
 augmentation part        5.1915351 magnetization 

 Broyden mixing:
  rms(total) = 0.28054E+00    rms(broyden)= 0.28054E+00
  rms(prec ) = 0.28347E+00
  weight for this iteration     100.00

 eigenvalues of (default mixing * dielectric matrix)
  average eigenvalue GAMMA=   1.9071
  1.2231  2.5911

 Free energy of the ion-electron system (eV)
  ---------------------------------------------------
  alpha Z        PSCENC =        68.21450308
  Ewald energy   TEWEN  =     -1085.10535231
  -Hartree energ DENC   =      -142.64190186
  -exchange      EXHF   =         0.00000000
  -V(xc)+E(xc)   XCENC  =        -9.80335500
  PAW double counting   =      1262.78676585    -1220.88995991
  entropy T*S    EENTRO =         0.00048314
  eigenvalues    EBANDS =        88.48811710
  atomic energy  EATOM  =      1037.24027811
  ---------------------------------------------------
  free energy    TOTEN  =        -1.71042180 eV

  energy without entropy =       -1.71090495  energy(sigma->0) =       -1.71058285


--------------------------------------------------------------------------------------------------------




----------------------------------------- Iteration    1(   8)  ---------------------------------------


    POTLOK:  cpu time    0.02: real time    0.02
    SETDIJ:  cpu time    0.01: real time    0.01
     EDDAV:  cpu time    0.35: real time    0.36
       DOS:  cpu time    0.00: real time    0.00
    CHARGE:  cpu time    0.03: real time    0.03
    MIXING:  cpu time    0.00: real time    0.00
    --------------------------------------------
      LOOP:  cpu time    0.41: real time    0.45

 eigenvalue-minimisations  :  1133
 total energy-change (2. order) : 0.5467198E-02  (-0.3153936E-03)
 number of electron      10.9999936 magnetization 
 augmentation part        5.1862155 magnetization 

 Broyden mixing:
  rms(total) = 0.16289E-01    rms(broyden)= 0.16289E-01
  rms(prec ) = 0.17404E-01
  weight for this iteration     100.00

 eigenvalues of (default mixing * dielectric matrix)
  average eigenvalue GAMMA=   1.5163
  2.5187  1.2298  0.8003

 Free energy of the ion-electron system (eV)
  ---------------------------------------------------
  alpha Z        PSCENC =        68.21450308
  Ewald energy   TEWEN  =     -1085.10535231
  -Hartree energ DENC   =      -141.75927972
  -exchange      EXHF   =         0.00000000
  -V(xc)+E(xc)   XCENC  =        -9.83327629
  PAW double counting   =      1331.93681116    -1291.24950540
  entropy T*S    EENTRO =         0.00048044
  eigenvalues    EBANDS =        88.85038633
  atomic energy  EATOM  =      1037.24027811
  ---------------------------------------------------
  free energy    TOTEN  =        -1.70495461 eV

  energy without entropy =       -1.70543505  energy(sigma->0) =       -1.70511475


--------------------------------------------------------------------------------------------------------




----------------------------------------- Iteration    1(   9)  ---------------------------------------


    POTLOK:  cpu time    0.01: real time    0.01
    SETDIJ:  cpu time    0.01: real time    0.01
     EDDAV:  cpu time    0.23: real time    0.23
       DOS:  cpu time    0.00: real time    0.01
    --------------------------------------------
      LOOP:  cpu time    0.26: real time    0.27

 eigenvalue-minimisations  :   601
 total energy-change (2. order) :-0.1003357E-04  (-0.7226210E-06)
 number of electron      10.9999936 magnetization 
 augmentation part        5.1862155 magnetization 

 Free energy of the ion-electron system (eV)
  ---------------------------------------------------
  alpha Z        PSCENC =        68.21450308
  Ewald energy   TEWEN  =     -1085.10535231
  -Hartree energ DENC   =      -141.84036152
  -exchange      EXHF   =         0.00000000
  -V(xc)+E(xc)   XCENC  =        -9.83052219
  PAW double counting   =      1328.72913801    -1287.96530588
  entropy T*S    EENTRO =         0.00048097
  eigenvalues    EBANDS =        88.85217709
  atomic energy  EATOM  =      1037.24027811
  ---------------------------------------------------
  free energy    TOTEN  =        -1.70496464 eV

  energy without entropy =       -1.70544561  energy(sigma->0) =       -1.70512496


--------------------------------------------------------------------------------------------------------




 average (electrostatic) potential at core
  the test charge radii are     1.1249
  (the norm of the test charge is              1.0000)
       1 -66.4917
 
 
 
 E-fermi :  13.8723     XC(G=0): -14.1834     alpha+bet :-18.4082


 k-point     1 :       0.0625    0.0625    0.0625
  band No.  band energies     occupation 
      1       3.4182      2.00000
      2       7.3271      2.00000
      3       7.4368      2.00000
      4       7.4368      2.00000
      5       9.1407      2.00000
      6       9.1407      2.00000
      7      30.0889      0.00000
      8      34.3740      0.00000
      9      35.5897      0.00000

 k-point     2 :       0.1875    0.0625    0.0625
  band No.  band energies     occupation 
      1       4.1970      2.00000
      2       7.0742      2.00000
      3       7.6736      2.00000
      4       7.7117      2.00000
      5       8.8912      2.00000
      6       9.2770      2.00000
      7      30.5897      0.00000
      8      31.7108      0.00000
      9      35.3013      0.00000

 k-point     3 :       0.3125    0.0625    0.0625
  band No.  band energies     occupation 
      1       5.1518      2.00000
      2       7.4917      2.00000
      3       7.7562      2.00000
      4       7.8055      2.00000
      5       9.1690      2.00000
      6       9.9491      2.00000
      7      26.6011      0.00000
      8      30.9149      0.00000
      9      35.5666      0.00000

 k-point     4 :       0.4375    0.0625    0.0625
  band No.  band energies     occupation 
      1       5.0134      2.00000
      2       7.3625      2.00000
      3       7.4906      2.00000
      4       9.5184      2.00000
      5      10.0512      2.00000
      6      11.6016      2.00000
      7      21.6816      0.00000
      8      29.7268      0.00000
      9      34.1218      0.00000

 k-point     5 :      -0.4375    0.0625    0.0625
  band No.  band energies     occupation 
      1       4.9043      2.00000
      2       7.2384      2.00000
      3       7.4208      2.00000
      4       9.9086      2.00000
      5      10.5361      2.00000
      6      12.9250      2.00000
      7      19.5274      0.00000
      8      29.3444      0.00000
      9      34.1687      0.00000

 k-point     6 :      -0.3125    0.0625    0.0625
  band No.  band energies     occupation 
      1       5.0874      2.00000
      2       7.4211      2.00000
      3       7.6150      2.00000
      4       8.7970      2.00000
      5      10.1958      2.00000
      6      10.6437      2.00000
      7      23.2377      0.00000
      8      30.1512      0.00000
      9      34.7965      0.00000

 k-point     7 :      -0.1875    0.0625    0.0625
  band No.  band energies     occupation 
      1       4.9632      2.00000
      2       7.1458      2.00000
      3       7.7599      2.00000
      4       7.8177      2.00000
      5       9.1222      2.00000
      6       9.5033      2.00000
      7      28.2444      0.00000
      8      31.3187      0.00000
      9      35.6562      0.00000

 k-point     8 :      -0.0625    0.0625    0.0625
  band No.  band energies     occupation 
      1       3.8266      2.00000
      2       7.1297      2.00000
      3       7.6087      2.00000
      4       7.6142      2.00000
      5       8.9268      2.00000
      6       9.2456      2.00000
      7      30.4999      0.00000
      8      33.0783      0.00000
      9      35.3334      0.00000

 k-point     9 :       0.1875    0.1875    0.0625
  band No.  band energies     occupation 
      1       4.5597      2.00000
      2       6.7506      2.00000
      3       7.9270      2.00000
      4       7.9602      2.00000
      5       8.6677      2.00000
      6       9.4430      2.00000
      7      31.0894      0.00000
      8      31.9721      0.00000
      9      34.3695      0.00000

 k-point    10 :       0.3125    0.1875    0.0625
  band No.  band energies     occupation 
      1       5.5440      2.00000
      2       6.4560      2.00000
      3       7.7019      2.00000
      4       8.3849      2.00000
      5       9.1515      2.00000
      6      10.1047      2.00000
      7      28.7347      0.00000
      8      30.7828      0.00000
      9      33.5560      0.00000

 k-point    11 :       0.4375    0.1875    0.0625
  band No.  band energies     occupation 
      1       5.5479      2.00000
      2       7.0404      2.00000
      3       7.5774      2.00000
      4       8.2335      2.00000
      5      10.1784      2.00000
      6      12.2481      2.00000
      7      23.6070      0.00000
      8      29.9067      0.00000
      9      31.6715      0.00000

 k-point    12 :      -0.4375    0.1875    0.0625
  band No.  band energies     occupation 
      1       5.4288      2.00000
      2       6.8198      2.00000
      3       7.9522      2.00000
      4       8.5030      2.00000
      5      10.4605      2.00000
      6      15.0979      0.00000
      7      19.5583      0.00000
      8      29.1685      0.00000
      9      31.1829      0.00000

 k-point    13 :      -0.3125    0.1875    0.0625
  band No.  band energies     occupation 
      1       5.5933      2.00000
      2       6.9781      2.00000
      3       7.8983      2.00000
      4       8.2379      2.00000
      5       9.9328      2.00000
      6      13.4525      2.01146
      7      22.0617      0.00000
      8      28.8868      0.00000
      9      31.7510      0.00000

 k-point    14 :      -0.1875    0.1875    0.0625
  band No.  band energies     occupation 
      1       5.8420      2.00000
      2       6.7534      2.00000
      3       7.4801      2.00000
      4       8.3314      2.00000
      5       8.9219      2.00000
      6      11.0140      2.00000
      7      27.0798      0.00000
      8      29.3800      0.00000
      9      33.7089      0.00000

 k-point    15 :      -0.0625    0.1875    0.0625
  band No.  band energies     occupation 
      1       4.8547      2.00000
      2       6.8178      2.00000
      3       7.8202      2.00000
      4       7.9532      2.00000
      5       8.7745      2.00000
      6       9.5846      2.00000
      7      29.9269      0.00000
      8      31.1875      0.00000
      9      34.7980      0.00000

 k-point    16 :       0.3125    0.3125    0.0625
  band No.  band energies     occupation 
      1       5.5396      2.00000
      2       5.8174      2.00000
      3       8.6106      2.00000
      4       9.0429      2.00000
      5       9.9409      2.00000
      6      10.0098      2.00000
      7      29.1598      0.00000
      8      30.4786      0.00000
      9      30.8094      0.00000

 k-point    17 :       0.4375    0.3125    0.0625
  band No.  band energies     occupation 
      1       5.4477      2.00000
      2       5.6854      2.00000
      3       8.4695      2.00000
      4       9.5254      2.00000
      5      10.2620      2.00000
      6      12.6278      2.00000
      7      26.0179      0.00000
      8      28.1206      0.00000
      9      28.5301      0.00000

 k-point    18 :      -0.4375    0.3125    0.0625
  band No.  band energies     occupation 
      1       5.5066      2.00000
      2       6.1797      2.00000
      3       8.0129      2.00000
      4       9.0953      2.00000
      5      10.5512      2.00000
      6      16.5317      0.00000
      7      21.1736      0.00000
      8      26.2160      0.00000
      9      28.5910      0.00000

 k-point    19 :      -0.3125    0.3125    0.0625
  band No.  band energies     occupation 
      1       5.9956      2.00000
      2       6.7105      2.00000
      3       7.3610      2.00000
      4       8.7962      2.00000
      5       9.9808      2.00000
      6      16.7897      0.00000
      7      21.5682      0.00000
      8      24.6285      0.00000
      9      30.4042      0.00000

 k-point    20 :      -0.1875    0.3125    0.0625
  band No.  band energies     occupation 
      1       6.2331      2.00000
      2       6.8273      2.00000
      3       7.1932      2.00000
      4       8.5501      2.00000
      5       9.3864      2.00000
      6      13.5551      2.04740
      7      24.2436      0.00000
      8      26.6947      0.00000
      9      31.8991      0.00000

 k-point    21 :      -0.0625    0.3125    0.0625
  band No.  band energies     occupation 
      1       5.3720      2.00000
      2       7.4291      2.00000
      3       7.6817      2.00000
      4       7.9316      2.00000
      5       9.6011      2.00000
      6      10.8181      2.00000
      7      25.0675      0.00000
      8      30.4653      0.00000
      9      33.7593      0.00000

 k-point    22 :       0.4375    0.4375    0.0625
  band No.  band energies     occupation 
      1       4.8876      2.00000
      2       5.1006      2.00000
      3      10.1327      2.00000
      4      10.1374      2.00000
      5      10.6054      2.00000
      6      13.4820      2.01863
      7      25.6607      0.00000
      8      26.2240      0.00000
      9      27.0573      0.00000

 k-point    23 :      -0.4375    0.4375    0.0625
  band No.  band energies     occupation 
      1       4.9162      2.00000
      2       5.2093      2.00000
      3       9.5784      2.00000
      4      10.1031      2.00000
      5      10.8015      2.00000
      6      16.3212      0.00000
      7      23.5386      0.00000
      8      24.2376      0.00000
      9      26.1922      0.00000

 k-point    24 :      -0.3125    0.4375    0.0625
  band No.  band energies     occupation 
      1       5.3931      2.00000
      2       6.0293      2.00000
      3       8.2465      2.00000
      4       9.3886      2.00000
      5      10.4982      2.00000
      6      18.7276      0.00000
      7      20.5177      0.00000
      8      23.8061      0.00000
      9      28.1379      0.00000

 k-point    25 :      -0.1875    0.4375    0.0625
  band No.  band energies     occupation 
      1       5.7971      2.00000
      2       6.5942      2.00000
      3       7.9089      2.00000
      4       8.3918      2.00000
      5      10.2706      2.00000
      6      16.5056      0.00000
      7      19.7664      0.00000
      8      27.2280      0.00000
      9      30.5023      0.00000

 k-point    26 :      -0.0625    0.4375    0.0625
  band No.  band energies     occupation 
      1       5.1385      2.00000
      2       7.1263      2.00000
      3       7.6307      2.00000
      4       9.0943      2.00000
      5      10.3826      2.00000
      6      13.2149      2.00003
      7      20.4111      0.00000
      8      29.5592      0.00000
      9      32.8014      0.00000

 k-point    27 :      -0.4375   -0.4375    0.0625
  band No.  band energies     occupation 
      1       4.6745      2.00000
      2       4.9422      2.00000
      3      10.3744      2.00000
      4      10.5374      2.00000
      5      10.8248      2.00000
      6      15.1112      0.00000
      7      23.6094      0.00000
      8      25.4375      0.00000
      9      26.2437      0.00000

 k-point    28 :      -0.3125   -0.4375    0.0625
  band No.  band energies     occupation 
      1       5.1232      2.00000
      2       5.3654      2.00000
      3       9.1127      2.00000
      4       9.9781      2.00000
      5      10.5766      2.00000
      6      14.6038      0.00000
      7      24.7890      0.00000
      8      25.8124      0.00000
      9      26.8850      0.00000

 k-point    29 :      -0.1875   -0.4375    0.0625
  band No.  band energies     occupation 
      1       5.5965      2.00000
      2       6.5316      2.00000
      3       7.7290      2.00000
      4       8.6594      2.00000
      5      10.4846      2.00000
      6      14.2280     -0.03055
      7      22.2607      0.00000
      8      28.7378      0.00000
      9      29.5887      0.00000

 k-point    30 :      -0.3125   -0.3125    0.0625
  band No.  band energies     occupation 
      1       5.2431      2.00000
      2       5.4049      2.00000
      3       9.4343      2.00000
      4       9.6517      2.00000
      5      10.3152      2.00000
      6      11.5274      2.00000
      7      27.5791      0.00000
      8      28.3780      0.00000
      9      28.5421      0.00000

 k-point    31 :      -0.1875   -0.3125    0.0625
  band No.  band energies     occupation 
      1       5.7234      2.00000
      2       6.0918      2.00000
      3       7.8614      2.00000
      4       8.9329      2.00000
      5       9.7974      2.00000
      6      11.0401      2.00000
      7      27.4137      0.00000
      8      29.6050      0.00000
      9      31.2009      0.00000

 k-point    32 :      -0.1875   -0.1875    0.0625
  band No.  band energies     occupation 
      1       5.3259      2.00000
      2       6.2852      2.00000
      3       8.1095      2.00000
      4       8.4510      2.00000
      5       8.9573      2.00000
      6       9.7087      2.00000
      7      30.5065      0.00000
      8      32.0119      0.00000
      9      32.5760      0.00000

 k-point    33 :       0.1875    0.1875    0.1875
  band No.  band energies     occupation 
      1       4.4839      2.00000
      2       7.1773      2.00000
      3       7.7021      2.00000
      4       7.7021      2.00000
      5       9.1248      2.00000
      6       9.1248      2.00000
      7      29.6450      0.00000
      8      31.3338      0.00000
      9      36.9006      0.00000

 k-point    34 :       0.3125    0.1875    0.1875
  band No.  band energies     occupation 
      1       5.3504      2.00000
      2       6.8375      2.00000
      3       7.7649      2.00000
      4       8.0539      2.00000
      5       8.6581      2.00000
      6      10.1472      2.00000
      7      28.4571      0.00000
      8      30.4082      0.00000
      9      35.0986      0.00000

 k-point    35 :       0.4375    0.1875    0.1875
  band No.  band energies     occupation 
      1       6.0692      2.00000
      2       6.9170      2.00000
      3       7.4904      2.00000
      4       8.2457      2.00000
      5       8.9491      2.00000
      6      12.1470      2.00000
      7      25.5994      0.00000
      8      27.9936      0.00000
      9      33.2237      0.00000

 k-point    36 :      -0.4375    0.1875    0.1875
  band No.  band energies     occupation 
      1       5.6689      2.00000
      2       6.8332      2.00000
      3       8.0687      2.00000
      4       8.2263      2.00000
      5      10.0047      2.00000
      6      14.8732      0.00000
      7      20.7541      0.00000
      8      27.9299      0.00000
      9      32.1156      0.00000

 k-point    37 :      -0.3125    0.1875    0.1875
  band No.  band energies     occupation 
      1       5.4706      2.00000
      2       6.7678      2.00000
      3       8.1064      2.00000
      4       8.1740      2.00000
      5      10.5894      2.00000
      6      14.6904      0.00000
      7      20.5519      0.00000
      8      28.9186      0.00000
      9      31.6841      0.00000

 k-point    38 :      -0.1875    0.1875    0.1875
  band No.  band energies     occupation 
      1       5.5700      2.00000
      2       6.5979      2.00000
      3       7.6906      2.00000
      4       8.4353      2.00000
      5      10.3172      2.00000
      6      11.3103      2.00000
      7      25.4100      0.00000
      8      30.5780      0.00000
      9      31.4838      0.00000

 k-point    39 :       0.3125    0.3125    0.1875
  band No.  band energies     occupation 
      1       5.4189      2.00000
      2       6.9828      2.00000
      3       7.5855      2.00000
      4       8.0621      2.00000
      5       9.8699      2.00000
      6       9.9301      2.00000
      7      26.8397      0.00000
      8      31.2479      0.00000
      9      33.5860      0.00000

 k-point    40 :       0.4375    0.3125    0.1875
  band No.  band energies     occupation 
      1       6.0076      2.00000
      2       6.6119      2.00000
      3       7.2026      2.00000
      4       8.8076      2.00000
      5       9.5085      2.00000
      6      12.2501      2.00000
      7      25.7362      0.00000
      8      28.1516      0.00000
      9      31.4456      0.00000

 k-point    41 :      -0.4375    0.3125    0.1875
  band No.  band energies     occupation 
      1       6.3379      2.00000
      2       6.4503      2.00000
      3       7.0532      2.00000
      4       8.9451      2.00000
      5       9.9405      2.00000
      6      15.3430      0.00000
      7      22.9977      0.00000
      8      25.6214      0.00000
      9      29.4609      0.00000

 k-point    42 :      -0.3125    0.3125    0.1875
  band No.  band energies     occupation 
      1       5.9645      2.00000
      2       6.3680      2.00000
      3       7.5102      2.00000
      4       8.8209      2.00000
      5      10.4244      2.00000
      6      17.6017      0.00000
      7      19.9360      0.00000
      8      26.8060      0.00000
      9      27.7034      0.00000

 k-point    43 :      -0.1875    0.3125    0.1875
  band No.  band energies     occupation 
      1       5.8332      2.00000
      2       6.1702      2.00000
      3       7.5399      2.00000
      4       9.3101      2.00000
      5      10.0464      2.00000
      6      13.9631      0.31235
      7      24.4466      0.00000
      8      26.9221      0.00000
      9      28.8317      0.00000

 k-point    44 :       0.4375    0.4375    0.1875
  band No.  band energies     occupation 
      1       5.4343      2.00000
      2       6.0904      2.00000
      3       8.2099      2.00000
      4       8.9059      2.00000
      5      10.5848      2.00000
      6      13.2187      2.00004
      7      24.0096      0.00000
      8      28.5606      0.00000
      9      29.7160      0.00000

 k-point    45 :      -0.4375    0.4375    0.1875
  band No.  band energies     occupation 
      1       5.5486      2.00000
      2       5.8457      2.00000
      3       8.0297      2.00000
      4       9.5895      2.00000
      5      10.4912      2.00000
      6      16.0429      0.00000
      7      23.3734      0.00000
      8      25.8286      0.00000
      9      26.1940      0.00000

 k-point    46 :      -0.3125    0.4375    0.1875
  band No.  band energies     occupation 
      1       5.7497      2.00000
      2       6.4046      2.00000
      3       7.3224      2.00000
      4       9.1581      2.00000
      5      10.7910      2.00000
      6      19.7153      0.00000
      7      21.3444      0.00000
      8      23.8160      0.00000
      9      24.7527      0.00000

 k-point    47 :      -0.1875    0.4375    0.1875
  band No.  band energies     occupation 
      1       5.9884      2.00000
      2       6.4169      2.00000
      3       7.1654      2.00000
      4       9.1417      2.00000
      5      10.4542      2.00000
      6      17.5000      0.00000
      7      21.9615      0.00000
      8      24.8678      0.00000
      9      26.6488      0.00000

 k-point    48 :      -0.4375   -0.4375    0.1875
  band No.  band energies     occupation 
      1       5.0550      2.00000
      2       5.5335      2.00000
      3       9.1220      2.00000
      4       9.7865      2.00000
      5      10.6208      2.00000
      6      17.2897      0.00000
      7      22.1667      0.00000
      8      23.7033      0.00000
      9      27.7953      0.00000

 k-point    49 :      -0.3125   -0.4375    0.1875
  band No.  band energies     occupation 
      1       5.3399      2.00000
      2       5.7120      2.00000
      3       8.4082      2.00000
      4       9.6029      2.00000
      5      10.7933      2.00000
      6      17.9817      0.00000
      7      22.7323      0.00000
      8      23.7293      0.00000
      9      25.4783      0.00000

 k-point    50 :      -0.3125   -0.3125    0.1875
  band No.  band energies     occupation 
      1       5.2138      2.00000
      2       5.7134      2.00000
      3       8.7682      2.00000
      4       9.4021      2.00000
      5      10.6773      2.00000
      6      15.3868      0.00000
      7      22.8431      0.00000
      8      25.9180      0.00000
      9      28.4528      0.00000

 k-point    51 :       0.3125    0.3125    0.3125
  band No.  band energies     occupation 
      1       5.0435      2.00000
      2       7.5958      2.00000
      3       7.5958      2.00000
      4       8.6464      2.00000
      5       9.7189      2.00000
      6       9.7189      2.00000
      7      24.8327      0.00000
      8      30.5183      0.00000
      9      37.0531      0.00000

 k-point    52 :       0.4375    0.3125    0.3125
  band No.  band energies     occupation 
      1       5.4328      2.00000
      2       7.2740      2.00000
      3       7.8053      2.00000
      4       8.2724      2.00000
      5       9.5191      2.00000
      6      11.9564      2.00000
      7      23.4830      0.00000
      8      29.6485      0.00000
      9      32.9758      0.00000

 k-point    53 :      -0.4375    0.3125    0.3125
  band No.  band energies     occupation 
      1       6.1456      2.00000
      2       6.8418      2.00000
      3       7.4167      2.00000
      4       8.4950      2.00000
      5       9.5718      2.00000
      6      15.0278      0.00000
      7      22.8717      0.00000
      8      25.4707      0.00000
      9      32.5587      0.00000

 k-point    54 :      -0.3125    0.3125    0.3125
  band No.  band energies     occupation 
      1       5.6062      2.00000
      2       6.4715      2.00000
      3       7.8576      2.00000
      4       9.0500      2.00000
      5      10.1745      2.00000
      6      18.3913      0.00000
      7      20.1672      0.00000
      8      24.0603      0.00000
      9      30.4751      0.00000

 k-point    55 :       0.4375    0.4375    0.3125
  band No.  band energies     occupation 
      1       5.2558      2.00000
      2       7.1227      2.00000
      3       7.8155      2.00000
      4       8.4094      2.00000
      5      10.5072      2.00000
      6      12.4961      2.00000
      7      21.7964      0.00000
      8      29.9186      0.00000
      9      32.9922      0.00000

 k-point    56 :      -0.4375    0.4375    0.3125
  band No.  band energies     occupation 
      1       5.8223      2.00000
      2       6.5902      2.00000
      3       7.7388      2.00000
      4       8.4659      2.00000
      5      10.2848      2.00000
      6      15.3811      0.00000
      7      20.8274      0.00000
      8      28.1927      0.00000
      9      29.5847      0.00000

 k-point    57 :      -0.3125    0.4375    0.3125
  band No.  band energies     occupation 
      1       5.8626      2.00000
      2       6.4849      2.00000
      3       7.3448      2.00000
      4       9.0505      2.00000
      5      10.4533      2.00000
      6      18.8924      0.00000
      7      20.4688      0.00000
      8      24.1517      0.00000
      9      27.4396      0.00000

 k-point    58 :      -0.4375   -0.4375    0.3125
  band No.  band energies     occupation 
      1       5.6039      2.00000
      2       6.5272      2.00000
      3       7.9315      2.00000
      4       8.6328      2.00000
      5      10.4384      2.00000
      6      17.0225      0.00000
      7      19.6965      0.00000
      8      26.5678      0.00000
      9      30.8621      0.00000

 k-point    59 :       0.4375    0.4375    0.4375
  band No.  band energies     occupation 
      1       4.8376      2.00000
      2       7.3576      2.00000
      3       7.3576      2.00000
      4      10.4181      2.00000
      5      10.4181      2.00000
      6      11.6001      2.00000
      7      20.3286      0.00000
      8      29.3818      0.00000
      9      35.0220      0.00000

 k-point    60 :      -0.4375    0.4375    0.4375
  band No.  band energies     occupation 
      1       5.1969      2.00000
      2       7.0317      2.00000
      3       7.6705      2.00000
      4       9.0881      2.00000
      5      10.3805      2.00000
      6      14.2210     -0.03338
      7      19.5520      0.00000
      8      29.3226      0.00000
      9      32.5315      0.00000


--------------------------------------------------------------------------------------------------------


 soft charge-density along one line, spin component           1
         0         1         2         3         4         5         6         7         8         9
x     5.8138    0.0000    0.6294    0.0000   -0.2435    0.0000    0.0170    0.0000    0.0074    0.0000
x     0.0000    0.0000    0.0000    0.0000
y     5.8138    0.0000    0.6294    0.0000   -0.2435    0.0000    0.0170    0.0000    0.0074    0.0000
y     0.0000    0.0000    0.0000    0.0000
z     5.8138    0.0000    0.6294    0.0000   -0.2435    0.0000    0.0170    0.0000    0.0074    0.0000
z     0.0000    0.0000    0.0000    0.0000
 total charge-density along one line
x    11.0000    0.0000    3.9163    0.0000    0.4214    0.0000   -0.0055    0.0000    0.0113    0.0000
x    -0.0014    0.0000    0.0006    0.0000   -0.0003    0.0000    0.0002    0.0000   -0.0001    0.0000
x     0.0001    0.0000    0.0000    0.0000    0.0000    0.0000
y    11.0000    0.0000    3.9163    0.0000    0.4214    0.0000   -0.0055    0.0000    0.0113    0.0000
y    -0.0014    0.0000    0.0006    0.0000   -0.0003    0.0000    0.0002    0.0000   -0.0001    0.0000
y     0.0001    0.0000    0.0000    0.0000    0.0000    0.0000
z    11.0000    0.0000    3.9163    0.0000    0.4214    0.0000   -0.0055    0.0000    0.0113    0.0000
z    -0.0014    0.0000    0.0006    0.0000   -0.0003    0.0000    0.0002    0.0000   -0.0001    0.0000
z     0.0001    0.0000    0.0000    0.0000    0.0000    0.0000
 
 pseudopotential strength for first ion, spin component:           1
 -1.716   0.000   0.000  -0.008   0.000  -2.044   0.000   0.000
  0.000  -1.711   0.000   0.000  -0.008   0.000  -2.038   0.000
  0.000   0.000  -1.722   0.000   0.000   0.000   0.000  -2.049
 -0.008   0.000   0.000  -1.711   0.000  -0.008   0.000   0.000
  0.000  -0.008   0.000   0.000  -1.716   0.000  -0.008   0.000
 -2.044   0.000   0.000  -0.008   0.000  -2.332   0.000   0.000
  0.000  -2.038   0.000   0.000  -0.008   0.000  -2.327   0.000
  0.000   0.000  -2.049   0.000   0.000   0.000   0.000  -2.338
 -0.008   0.000   0.000  -2.038   0.000  -0.007   0.000   0.000
  0.000  -0.008   0.000   0.000  -2.044   0.000  -0.007   0.000
  0.000   0.000   0.000   0.000   0.000   0.000   0.000   0.000
  0.000   0.000   0.000   0.000   0.000   0.000   0.000   0.000
  0.000   0.000   0.000   0.000   0.000   0.000   0.000   0.000
  0.000   0.000   0.000   0.000   0.000   0.000   0.000   0.000
  0.000   0.000   0.000   0.000   0.000   0.000   0.000   0.000
  0.000   0.000   0.000   0.000   0.000   0.000   0.000   0.000
  0.000   0.000   0.000   0.000   0.000   0.000   0.000   0.000
  0.000   0.000   0.000   0.000   0.000   0.000   0.000   0.000
 total augmentation occupancy for first ion, spin component:           1
  5.469   0.000   0.000   0.096   0.000  -3.695   0.000   0.000  -0.199   0.000   0.000   0.000   0.000   0.000   0.000   0.000
  0.000   5.401   0.000   0.000   0.096   0.000  -3.555   0.000   0.000  -0.199   0.000   0.000   0.000   0.000   0.000   0.000
  0.000   0.000   5.537   0.000   0.000   0.000   0.000  -3.836   0.000   0.000   0.000   0.000   0.000   0.000   0.000   0.000
  0.096   0.000   0.000   5.401   0.000  -0.199   0.000   0.000  -3.555   0.000   0.000   0.000   0.000   0.000   0.000   0.000
  0.000   0.096   0.000   0.000   5.469   0.000  -0.199   0.000   0.000  -3.695   0.000   0.000   0.000   0.000   0.000   0.000
 -3.695   0.000   0.000  -0.199   0.000   3.875   0.000   0.000   0.289   0.000   0.000   0.000   0.000   0.000   0.000   0.000
  0.000  -3.555   0.000   0.000  -0.199   0.000   3.671   0.000   0.000   0.289   0.000   0.000   0.000   0.000   0.000   0.000
  0.000   0.000  -3.836   0.000   0.000   0.000   0.000   4.079   0.000   0.000   0.000   0.000   0.000   0.000   0.000   0.000
 -0.199   0.000   0.000  -3.555   0.000   0.289   0.000   0.000   3.671   0.000   0.000   0.000   0.000   0.000   0.000   0.000
  0.000  -0.199   0.000   0.000  -3.695   0.000   0.289   0.000   0.000   3.875   0.000   0.000   0.000   0.000   0.000   0.000
  0.000   0.000   0.000   0.000   0.000   0.000   0.000   0.000   0.000   0.000   3.376  -0.764   0.000   0.000   0.000   0.000
  0.000   0.000   0.000   0.000   0.000   0.000   0.000   0.000   0.000   0.000  -0.764   0.207   0.000   0.000   0.000   0.000
  0.000   0.000   0.000   0.000   0.000   0.000   0.000   0.000   0.000   0.000   0.000   0.000   0.336   0.000   0.000  -0.021
  0.000   0.000   0.000   0.000   0.000   0.000   0.000   0.000   0.000   0.000   0.000   0.000   0.000   0.336   0.000   0.000
  0.000   0.000   0.000   0.000   0.000   0.000   0.000   0.000   0.000   0.000   0.000   0.000   0.000   0.000   0.336   0.000
  0.000   0.000   0.000   0.000   0.000   0.000   0.000   0.000   0.000   0.000   0.000   0.000  -0.021   0.000   0.000   0.001
  0.000   0.000   0.000   0.000   0.000   0.000   0.000   0.000   0.000   0.000   0.000   0.000   0.000  -0.021   0.000   0.000
  0.000   0.000   0.000   0.000   0.000   0.000   0.000   0.000   0.000   0.000   0.000   0.000   0.000   0.000  -0.021   0.000


------------------------ aborting loop because EDIFF is reached ----------------------------------------


    CHARGE:  cpu time    0.03: real time    0.03
    FORLOC:  cpu time    0.00: real time    0.00
    FORNL :  cpu time    0.06: real time    0.06
    STRESS:  cpu time    0.21: real time    0.22
    FORCOR:  cpu time    0.02: real time    0.02
    FORHAR:  cpu time    0.00: real time    0.00
    MIXING:  cpu time    0.00: real time    0.00
    OFIELD:  cpu time    0.00: real time    0.00

  FORCE on cell =-STRESS in cart. coord.  units (eV):
  Direction    XX          YY          ZZ          XY          YZ          ZX
  --------------------------------------------------------------------------------------
  Alpha Z    68.21450    68.21450    68.21450
  Ewald    -361.70180  -361.70180  -361.70180     0.00000     0.00000     0.00000
  Hartree    47.27974    47.27974    47.27974     0.00000     0.00000     0.00000
  E(xc)     -59.31798   -59.31800   -59.31801     0.00002     0.00001     0.00001
  Local      80.18704    80.18677    80.18670     0.00024     0.00010     0.00017
  n-local     1.14760     1.44422     3.20537    -0.65393    -0.54583     2.13874
  augment    91.42825    91.42841    91.42844    -0.00013    -0.00005    -0.00009
  Kinetic   139.14119   138.88124   138.48837     0.11702    -0.29018    -0.61370
  Fock        0.00000     0.00000     0.00000     0.00000     0.00000     0.00000
  -------------------------------------------------------------------------------------
  Total       6.85899     6.85899     6.85899     0.00000     0.00000     0.00000
  in kB     881.31873   881.31873   881.31873     0.00000     0.00000     0.00000
  external pressure =      881.32 kB  Pullay stress =        0.00 kB


 VOLUME and BASIS-vectors are now :
 -----------------------------------------------------------------------------
  energy-cutoff  :      350.00
  volume of cell :       12.47
      direct lattice vectors                 reciprocal lattice vectors
     2.602860062  0.000000000  0.000000000     0.384192763 -0.221813795 -0.156846039
     1.301430031  2.254142936  0.000000000     0.000000000  0.443627591 -0.156846039
     1.301430031  0.751380979  2.125226341     0.000000000  0.000000000  0.470538117

  length of vectors
     2.602860062  2.602860062  2.602860062     0.470538117  0.470538117  0.470538117


 FORCES acting on ions
    electron-ion (+dipol)            ewald-force                    non-local-force                 convergence-correction
 -----------------------------------------------------------------------------------------------
   -.816E-13 -.148E-13 -.893E-14   -.238E-14 0.309E-15 -.272E-15   0.265E-22 -.662E-23 0.000E+00   -.458E-13 -.517E-13 -.220E-13
 -----------------------------------------------------------------------------------------------
   -.816E-13 -.148E-13 -.893E-14   -.238E-14 0.309E-15 -.272E-15   0.265E-22 -.662E-23 0.000E+00   -.458E-13 -.517E-13 -.220E-13
 
 
 POSITION                                       TOTAL-FORCE (eV/Angst)
 -----------------------------------------------------------------------------------
      0.00000      0.00000      0.00000         0.000000      0.000000      0.000000
 -----------------------------------------------------------------------------------
    total drift:                                0.000000      0.000000      0.000000


--------------------------------------------------------------------------------------------------------



  FREE ENERGIE OF THE ION-ELECTRON SYSTEM (eV)
  ---------------------------------------------------
  free  energy   TOTEN  =        -1.70496464 eV

  energy  without entropy=       -1.70544561  energy(sigma->0) =       -1.70512496
 


--------------------------------------------------------------------------------------------------------


    POTLOK:  cpu time    0.02: real time    0.03


--------------------------------------------------------------------------------------------------------


 stress matrix after NEB project (eV)
      6.85899      0.00000      0.00000
      0.00000      6.85899      0.00000
      0.00000      0.00000      6.85899
  FORCES: max atom, RMS     0.000000    0.000000
  FORCE total and by dimension    0.000000    0.000000
  Stress total and by dimension   11.880111    6.858985


--------------------------------------------------------------------------------------------------------


  
 reached required accuracy - stopping structural energy minimisation
 writing wavefunctions
     LOOP+:  cpu time    3.96: real time    4.34
    4ORBIT:  cpu time    0.00: real time    0.00

 total amount of memory used by VASP on root node    34261. kBytes
========================================================================

   base      :      30000. kBytes
   nonl-proj :       1661. kBytes
   grid      :        771. kBytes
   one-center:         15. kBytes
   wavefun   :       1814. kBytes
 
  
  
 General timing and accounting informations for this job:
 ========================================================
  
                  Total CPU time used (sec):        4.695
                            User time (sec):        4.131
                          System time (sec):        0.564
                         Elapsed time (sec):        5.509
  
                   Maximum memory used (kb):           0.
                   Average memory used (kb):           0.
  
                          Minor page faults:         4982
                          Major page faults:            1
                 Voluntary context switches:        18238
