<?xml version="1.0" encoding="ISO-8859-1"?>
<modeling>
 <generator>
  <i name="program" type="string">vasp </i>
  <i name="version" type="string">5.3.5  </i>
  <i name="subversion" type="string">31Mar14 (build Jan 09 2015 16:57:47) complex                          serial </i>
  <i name="platform" type="string">LinuxIFC </i>
  <i name="date" type="string">2015 03 24 </i>
  <i name="time" type="string">14:26:00 </i>
 </generator>
 <incar>
  <i type="string" name="PREC">normal</i>
  <i type="int" name="IBRION">     2</i>
  <i type="int" name="NSW">    30</i>
  <i type="int" name="ISIF">     2</i>
  <i name="ENCUT">    350.00000000</i>
 </incar>
 <kpoints>
  <generation param="Monkhorst-Pack">
   <v type="int" name="divisions">       8        8        8 </v>
   <v name="usershift">      0.00000000       0.00000000       0.00000000 </v>
   <v name="genvec1">      0.12500000       0.00000000       0.00000000 </v>
   <v name="genvec2">      0.00000000       0.12500000       0.00000000 </v>
   <v name="genvec3">      0.00000000       0.00000000       0.12500000 </v>
   <v name="shift">      0.50000000       0.50000000       0.50000000 </v>
  </generation>
  <varray name="kpointlist" >
   <v>       0.06250000       0.06250000       0.06250000 </v>
   <v>       0.18750000       0.06250000       0.06250000 </v>
   <v>       0.31250000       0.06250000       0.06250000 </v>
   <v>       0.43750000       0.06250000       0.06250000 </v>
   <v>      -0.43750000       0.06250000       0.06250000 </v>
   <v>      -0.31250000       0.06250000       0.06250000 </v>
   <v>      -0.18750000       0.06250000       0.06250000 </v>
   <v>      -0.06250000       0.06250000       0.06250000 </v>
   <v>       0.18750000       0.18750000       0.06250000 </v>
   <v>       0.31250000       0.18750000       0.06250000 </v>
   <v>       0.43750000       0.18750000       0.06250000 </v>
   <v>      -0.43750000       0.18750000       0.06250000 </v>
   <v>      -0.31250000       0.18750000       0.06250000 </v>
   <v>      -0.18750000       0.18750000       0.06250000 </v>
   <v>      -0.06250000       0.18750000       0.06250000 </v>
   <v>       0.31250000       0.31250000       0.06250000 </v>
   <v>       0.43750000       0.31250000       0.06250000 </v>
   <v>      -0.43750000       0.31250000       0.06250000 </v>
   <v>      -0.31250000       0.31250000       0.06250000 </v>
   <v>      -0.18750000       0.31250000       0.06250000 </v>
   <v>      -0.06250000       0.31250000       0.06250000 </v>
   <v>       0.43750000       0.43750000       0.06250000 </v>
   <v>      -0.43750000       0.43750000       0.06250000 </v>
   <v>      -0.31250000       0.43750000       0.06250000 </v>
   <v>      -0.18750000       0.43750000       0.06250000 </v>
   <v>      -0.06250000       0.43750000       0.06250000 </v>
   <v>      -0.43750000      -0.43750000       0.06250000 </v>
   <v>      -0.31250000      -0.43750000       0.06250000 </v>
   <v>      -0.18750000      -0.43750000       0.06250000 </v>
   <v>      -0.31250000      -0.31250000       0.06250000 </v>
   <v>      -0.18750000      -0.31250000       0.06250000 </v>
   <v>      -0.18750000      -0.18750000       0.06250000 </v>
   <v>       0.18750000       0.18750000       0.18750000 </v>
   <v>       0.31250000       0.18750000       0.18750000 </v>
   <v>       0.43750000       0.18750000       0.18750000 </v>
   <v>      -0.43750000       0.18750000       0.18750000 </v>
   <v>      -0.31250000       0.18750000       0.18750000 </v>
   <v>      -0.18750000       0.18750000       0.18750000 </v>
   <v>       0.31250000       0.31250000       0.18750000 </v>
   <v>       0.43750000       0.31250000       0.18750000 </v>
   <v>      -0.43750000       0.31250000       0.18750000 </v>
   <v>      -0.31250000       0.31250000       0.18750000 </v>
   <v>      -0.18750000       0.31250000       0.18750000 </v>
   <v>       0.43750000       0.43750000       0.18750000 </v>
   <v>      -0.43750000       0.43750000       0.18750000 </v>
   <v>      -0.31250000       0.43750000       0.18750000 </v>
   <v>      -0.18750000       0.43750000       0.18750000 </v>
   <v>      -0.43750000      -0.43750000       0.18750000 </v>
   <v>      -0.31250000      -0.43750000       0.18750000 </v>
   <v>      -0.31250000      -0.31250000       0.18750000 </v>
   <v>       0.31250000       0.31250000       0.31250000 </v>
   <v>       0.43750000       0.31250000       0.31250000 </v>
   <v>      -0.43750000       0.31250000       0.31250000 </v>
   <v>      -0.31250000       0.31250000       0.31250000 </v>
   <v>       0.43750000       0.43750000       0.31250000 </v>
   <v>      -0.43750000       0.43750000       0.31250000 </v>
   <v>      -0.31250000       0.43750000       0.31250000 </v>
   <v>      -0.43750000      -0.43750000       0.31250000 </v>
   <v>       0.43750000       0.43750000       0.43750000 </v>
   <v>      -0.43750000       0.43750000       0.43750000 </v>
  </varray>
  <varray name="weights" >
   <v>       0.00390625 </v>
   <v>       0.01171875 </v>
   <v>       0.01171875 </v>
   <v>       0.01171875 </v>
   <v>       0.01171875 </v>
   <v>       0.01171875 </v>
   <v>       0.01171875 </v>
   <v>       0.01171875 </v>
   <v>       0.01171875 </v>
   <v>       0.02343750 </v>
   <v>       0.02343750 </v>
   <v>       0.02343750 </v>
   <v>       0.02343750 </v>
   <v>       0.02343750 </v>
   <v>       0.02343750 </v>
   <v>       0.01171875 </v>
   <v>       0.02343750 </v>
   <v>       0.02343750 </v>
   <v>       0.02343750 </v>
   <v>       0.02343750 </v>
   <v>       0.02343750 </v>
   <v>       0.01171875 </v>
   <v>       0.02343750 </v>
   <v>       0.02343750 </v>
   <v>       0.02343750 </v>
   <v>       0.02343750 </v>
   <v>       0.01171875 </v>
   <v>       0.02343750 </v>
   <v>       0.02343750 </v>
   <v>       0.01171875 </v>
   <v>       0.02343750 </v>
   <v>       0.01171875 </v>
   <v>       0.00390625 </v>
   <v>       0.01171875 </v>
   <v>       0.01171875 </v>
   <v>       0.01171875 </v>
   <v>       0.01171875 </v>
   <v>       0.01171875 </v>
   <v>       0.01171875 </v>
   <v>       0.02343750 </v>
   <v>       0.02343750 </v>
   <v>       0.02343750 </v>
   <v>       0.02343750 </v>
   <v>       0.01171875 </v>
   <v>       0.02343750 </v>
   <v>       0.02343750 </v>
   <v>       0.02343750 </v>
   <v>       0.01171875 </v>
   <v>       0.02343750 </v>
   <v>       0.01171875 </v>
   <v>       0.00390625 </v>
   <v>       0.01171875 </v>
   <v>       0.01171875 </v>
   <v>       0.01171875 </v>
   <v>       0.01171875 </v>
   <v>       0.02343750 </v>
   <v>       0.02343750 </v>
   <v>       0.01171875 </v>
   <v>       0.00390625 </v>
   <v>       0.01171875 </v>
  </varray>
 </kpoints>
 <parameters>
  <separator name="general" >
   <i type="string" name="SYSTEM">unknown system</i>
   <i type="logical" name="LCOMPAT"> F  </i>
  </separator>
  <separator name="electronic" >
   <i type="string" name="PREC">normal</i>
   <i name="ENMAX">    350.00000000</i>
   <i name="ENAUG">    412.49600000</i>
   <i name="EDIFF">      0.00010000</i>
   <i type="int" name="IALGO">    38</i>
   <i type="int" name="IWAVPR">    11</i>
   <i type="int" name="NBANDS">     9</i>
   <i name="NELECT">     11.00000000</i>
   <i type="int" name="TURBO">     0</i>
   <i type="int" name="IRESTART">     0</i>
   <i type="int" name="NREBOOT">     0</i>
   <i type="int" name="NMIN">     0</i>
   <i name="EREF">      0.00000000</i>
   <separator name="electronic smearing" >
    <i type="int" name="ISMEAR">     1</i>
    <i name="SIGMA">      0.20000000</i>
    <i name="KSPACING">      0.50000000</i>
    <i type="logical" name="KGAMMA"> T  </i>
   </separator>
   <separator name="electronic projectors" >
    <i type="logical" name="LREAL"> F  </i>
    <v name="ROPT">      0.00000000</v>
    <i type="int" name="LMAXPAW">  -100</i>
    <i type="int" name="LMAXMIX">     2</i>
    <i type="logical" name="NLSPLINE"> F  </i>
   </separator>
   <separator name="electronic startup" >
    <i type="int" name="ISTART">     0</i>
    <i type="int" name="ICHARG">     2</i>
    <i type="int" name="INIWAV">     1</i>
   </separator>
   <separator name="electronic spin" >
    <i type="int" name="ISPIN">     1</i>
    <i type="logical" name="LNONCOLLINEAR"> F  </i>
    <v name="MAGMOM">      1.00000000</v>
    <i name="NUPDOWN">     -1.00000000</i>
    <i type="logical" name="LSORBIT"> F  </i>
    <v name="SAXIS">      0.00000000      0.00000000      1.00000000</v>
    <i type="logical" name="LSPIRAL"> F  </i>
    <v name="QSPIRAL">      0.00000000      0.00000000      0.00000000</v>
    <i type="logical" name="LZEROZ"> F  </i>
   </separator>
   <separator name="electronic exchange-correlation" >
    <i type="logical" name="LASPH"> F  </i>
    <i type="logical" name="LMETAGGA"> F  </i>
   </separator>
   <separator name="electronic convergence" >
    <i type="int" name="NELM">    60</i>
    <i type="int" name="NELMDL">    -5</i>
    <i type="int" name="NELMIN">     2</i>
    <i name="ENINI">    350.00000000</i>
    <separator name="electronic convergence detail" >
     <i type="logical" name="LDIAG"> T  </i>
     <i type="logical" name="LSUBROT"> F  </i>
     <i name="WEIMIN">      0.00100000</i>
     <i name="EBREAK">      0.00000278</i>
     <i name="DEPER">      0.30000000</i>
     <i type="int" name="NRMM">     4</i>
     <i name="TIME">      0.40000000</i>
    </separator>
   </separator>
   <separator name="electronic mixer" >
    <i name="AMIX">      0.40000000</i>
    <i name="BMIX">      1.00000000</i>
    <i name="AMIN">      0.10000000</i>
    <i name="AMIX_MAG">      1.60000000</i>
    <i name="BMIX_MAG">      1.00000000</i>
    <separator name="electronic mixer details" >
     <i type="int" name="IMIX">     4</i>
     <i type="int" name="MAXMIX">   -45</i>
     <i name="WC">    100.00000000</i>
     <i type="int" name="INIMIX">     1</i>
     <i type="int" name="MIXPRE">     1</i>
     <i type="int" name="MREMOVE">     5</i>
    </separator>
   </separator>
   <separator name="electronic dipolcorrection" >
    <i type="logical" name="LDIPOL"> F  </i>
    <i type="logical" name="LMONO"> F  </i>
    <i type="int" name="IDIPOL">     0</i>
    <i name="EPSILON">      1.00000000</i>
    <v name="DIPOL">   -100.00000000   -100.00000000   -100.00000000</v>
    <i name="EFIELD">      0.00000000</i>
   </separator>
  </separator>
  <separator name="grids" >
   <i type="int" name="NGX">    12</i>
   <i type="int" name="NGY">    12</i>
   <i type="int" name="NGZ">    12</i>
   <i type="int" name="NGXF">    24</i>
   <i type="int" name="NGYF">    24</i>
   <i type="int" name="NGZF">    24</i>
   <i type="logical" name="ADDGRID"> F  </i>
  </separator>
  <separator name="ionic" >
   <i type="int" name="NSW">    30</i>
   <i type="int" name="IBRION">     2</i>
   <i type="int" name="ISIF">     2</i>
   <i name="PSTRESS">      0.00000000</i>
   <i name="EDIFFG">      0.00100000</i>
   <i type="int" name="NFREE">     1</i>
   <i name="POTIM">      0.50000000</i>
   <i name="SMASS">     -3.00000000</i>
   <i name="SCALEE">      1.00000000</i>
  </separator>
  <separator name="ionic md" >
   <i name="TEBEG">      0.00010000</i>
   <i name="TEEND">      0.00010000</i>
   <i type="int" name="NBLOCK">     1</i>
   <i type="int" name="KBLOCK">    30</i>
   <i type="int" name="NPACO">   256</i>
   <i name="APACO">     16.00000000</i>
  </separator>
  <separator name="symmetry" >
   <i type="int" name="ISYM">     2</i>
   <i name="SYMPREC">      0.00001000</i>
  </separator>
  <separator name="dos" >
   <i type="logical" name="LORBIT"> F  </i>
   <v name="RWIGS">     -1.00000000</v>
   <i type="int" name="NEDOS">   301</i>
   <i name="EMIN">     10.00000000</i>
   <i name="EMAX">    -10.00000000</i>
   <i name="EFERMI">      0.00000000</i>
  </separator>
  <separator name="writing" >
   <i type="int" name="NWRITE">     2</i>
   <i type="logical" name="LWAVE"> T  </i>
   <i type="logical" name="LCHARG"> T  </i>
   <i type="logical" name="LPARD"> F  </i>
   <i type="logical" name="LVTOT"> F  </i>
   <i type="logical" name="LVHAR"> F  </i>
   <i type="logical" name="LELF"> F  </i>
   <i type="logical" name="LOPTICS"> F  </i>
   <v name="STM">      0.00000000      0.00000000      0.00000000      0.00000000      0.00000000      0.00000000      0.00000000</v>
  </separator>
  <separator name="performance" >
   <i type="int" name="NPAR">     1</i>
   <i type="int" name="NSIM">     4</i>
   <i type="int" name="NBLK">    -1</i>
   <i type="logical" name="LPLANE"> T  </i>
   <i type="logical" name="LSCALAPACK"> F  </i>
   <i type="logical" name="LSCAAWARE"> F  </i>
   <i type="logical" name="LSCALU"> F  </i>
   <i type="logical" name="LASYNC"> F  </i>
   <i type="logical" name="LORBITALREAL"> F  </i>
  </separator>
  <separator name="miscellaneous" >
   <i type="int" name="IDIOT">     3</i>
   <i type="logical" name="LMUSIC"> F  </i>
   <v name="POMASS">    107.86800000</v>
   <v name="DARWINR">      0.00000000</v>
   <v name="DARWINV">      1.00000000</v>
   <i type="logical" name="LCORR"> T  </i>
  </separator>
  <i type="logical" name="GGA_COMPAT"> T  </i>
  <i type="logical" name="LBERRY"> F  </i>
  <i type="int" name="ICORELEVEL">     0</i>
  <i type="logical" name="LDAU"> F  </i>
  <i type="int" name="I_CONSTRAINED_M">     0</i>
  <separator name="electronic exchange-correlation" >
   <i type="string" name="GGA">--</i>
   <i type="int" name="VOSKOWN">     0</i>
   <i type="logical" name="LHFCALC"> F  </i>
   <i type="string" name="PRECFOCK"></i>
   <i type="logical" name="LSYMGRAD"> F  </i>
   <i type="logical" name="LHFONE"> F  </i>
   <i type="logical" name="LRHFCALC"> F  </i>
   <i type="logical" name="LTHOMAS"> F  </i>
   <i type="logical" name="LMODELHF"> F  </i>
   <i name="ENCUT4O">     -1.00000000</i>
   <i type="int" name="EXXOEP">     0</i>
   <i type="int" name="FOURORBIT">     0</i>
   <i name="AEXX">      0.00000000</i>
   <i name="HFALPHA">      0.00000000</i>
   <i name="MCALPHA">      0.00000000</i>
   <i name="ALDAX">      1.00000000</i>
   <i name="AGGAX">      1.00000000</i>
   <i name="ALDAC">      1.00000000</i>
   <i name="AGGAC">      1.00000000</i>
   <i type="int" name="NKREDX">     1</i>
   <i type="int" name="NKREDY">     1</i>
   <i type="int" name="NKREDZ">     1</i>
   <i type="logical" name="SHIFTRED"> F  </i>
   <i type="logical" name="ODDONLY"> F  </i>
   <i type="logical" name="EVENONLY"> F  </i>
   <i type="int" name="LMAXFOCK">     0</i>
   <i type="int" name="NMAXFOCKAE">     0</i>
   <i type="logical" name="LFOCKAEDFT"> F  </i>
   <i name="HFSCREEN">      0.00000000</i>
   <i name="HFSCREENC">      0.00000000</i>
   <i type="int" name="NBANDSGWLOW">     0</i>
  </separator>
  <separator name="vdW DFT" >
   <i type="logical" name="LUSE_VDW"> F  </i>
   <i name="Zab_VDW">     -0.84910000</i>
   <i name="PARAM1">      0.12340000</i>
   <i name="PARAM2">      1.00000000</i>
   <i name="PARAM3">      0.00000000</i>
  </separator>
  <separator name="model GW" >
   <i type="int" name="MODEL_GW">     0</i>
   <i name="MODEL_EPS0">      7.48150054</i>
   <i name="MODEL_ALPHA">      1.00000000</i>
  </separator>
  <separator name="linear response parameters" >
   <i type="logical" name="LEPSILON"> F  </i>
   <i type="logical" name="LRPA"> F  </i>
   <i type="logical" name="LNABLA"> F  </i>
   <i type="logical" name="LVEL"> F  </i>
   <i type="int" name="KINTER">     0</i>
   <i name="CSHIFT">      0.10000000</i>
   <i name="OMEGAMAX">     -1.00000000</i>
   <i name="DEG_THRESHOLD">      0.00200000</i>
  </separator>
  <separator name="orbital magnetization" >
   <i type="logical" name="NUCIND"> F  </i>
   <v name="MAGPOS">      0.00000000      0.00000000      0.00000000</v>
   <i type="logical" name="LNICSALL"> T  </i>
   <i type="logical" name="ORBITALMAG"> F  </i>
   <i type="logical" name="LMAGBLOCH"> F  </i>
   <i type="logical" name="LCHIMAG"> F  </i>
   <i type="logical" name="LGAUGE"> T  </i>
   <i type="int" name="MAGATOM">     0</i>
   <v name="MAGDIPOL">      0.00000000      0.00000000      0.00000000</v>
   <v name="AVECCONST">      0.00000000      0.00000000      0.00000000</v>
  </separator>
  <separator name="response functions" >
   <i type="logical" name="LADDER"> F  </i>
   <i type="logical" name="LFXC"> F  </i>
   <i type="logical" name="LHARTREE"> T  </i>
   <i type="int" name="IBSE">     0</i>
   <i type="logical" name="LTCTE"> F  </i>
   <i type="logical" name="LTETE"> F  </i>
   <i type="logical" name="LTRIPLET"> F  </i>
   <i type="logical" name="LFXCEPS"> F  </i>
   <i type="logical" name="LFXHEG"> F  </i>
   <i type="logical" name="L2ORDER"> F  </i>
   <i type="logical" name="LUSEW"> F  </i>
   <i name="ENCUTGW">     -2.00000000</i>
   <i name="ENCUTGWSOFT">     -2.00000000</i>
   <i name="ENCUTLF">     -1.00000000</i>
   <i type="int" name="LMAXMP2">    -1</i>
   <i name="SCISSOR">      0.00000000</i>
   <i type="int" name="NOMEGA">     0</i>
   <i type="int" name="NOMEGAR">     0</i>
   <i type="int" name="NBANDSGW">    -1</i>
   <i type="int" name="NBANDSO">    -1</i>
   <i type="int" name="NBANDSV">    -1</i>
   <i type="int" name="NELM">     1</i>
   <i type="int" name="DIM">     3</i>
   <i type="int" name="ANTIRES">     0</i>
   <i name="OMEGAMAX">    -30.00000000</i>
   <i name="OMEGAMIN">    -30.00000000</i>
   <i name="OMEGATL">   -200.00000000</i>
   <i type="int" name="OMEGAGRID">     0</i>
   <i name="CSHIFT">     -0.10000000</i>
   <i type="logical" name="SELFENERGY"> F  </i>
   <i type="logical" name="LSPECTRAL"> F  </i>
   <i type="logical" name="ODDONLYGW"> F  </i>
   <i type="logical" name="EVENONLYGW"> F  </i>
   <i type="int" name="NKREDLFX">     1</i>
   <i type="int" name="NKREDLFY">     1</i>
   <i type="int" name="NKREDLFZ">     1</i>
   <i type="int" name="MAXMEM">  1800</i>
   <i type="int" name="TELESCOPE">     0</i>
   <i type="int" name="TAUPAR">     1</i>
  </separator>
  <separator name="External order field" >
   <i name="OFIELD_KAPPA">      0.00000000</i>
   <v name="OFIELD_K">      0.00000000      0.00000000      0.00000000</v>
   <i name="OFIELD_Q6_NEAR">      0.00000000</i>
   <i name="OFIELD_Q6_FAR">      0.00000000</i>
   <i name="OFIELD_A">      0.00000000</i>
  </separator>
 </parameters>
 <atominfo>
  <atoms>       1 </atoms>
  <types>       1 </types>
  <array name="atoms" >
   <dimension dim="1">ion</dimension>
   <field type="string">element</field>
   <field type="int">atomtype</field>
   <set>
    <rc><c>Ag</c><c>   1</c></rc>
   </set>
  </array>
  <array name="atomtypes" >
   <dimension dim="1">type</dimension>
   <field type="int">atomspertype</field>
   <field type="string">element</field>
   <field>mass</field>
   <field>valence</field>
   <field type="string">pseudopotential</field>
   <set>
    <rc><c>   1</c><c>Ag</c><c>    107.86800000</c><c>     11.00000000</c><c>  PAW_PBE Ag 02Apr2005                  </c></rc>
   </set>
  </array>
 </atominfo>
 <structure name="initialpos" >
  <crystal>
   <varray name="basis" >
    <v>       2.60286006       0.00000000       0.00000000 </v>
    <v>       1.30143003       2.25414294       0.00000000 </v>
    <v>       1.30143003       0.75138098       2.12522634 </v>
   </varray>
   <i name="volume">     12.46916756 </i>
   <varray name="rec_basis" >
    <v>       0.38419276      -0.22181380      -0.15684604 </v>
    <v>       0.00000000       0.44362759      -0.15684604 </v>
    <v>       0.00000000       0.00000000       0.47053812 </v>
   </varray>
  </crystal>
  <varray name="positions" >
   <v>       0.00000000       0.00000000       0.00000000 </v>
  </varray>
 </structure>
 <calculation>
  <scstep>
   <time name="dav">    0.36    0.37</time>
   <time name="total">    0.39    0.41</time>
   <energy>
    <i name="alphaZ">     68.21450308 </i>
    <i name="ewald">  -1085.10535231 </i>
    <i name="hartreedc">   -155.90931243 </i>
    <i name="XCdc">     -9.34947909 </i>
    <i name="pawpsdc">   1003.46214933 </i>
    <i name="pawaedc">   -957.34927423 </i>
    <i name="eentropy">     -0.00390590 </i>
    <i name="bandstr">    130.80872957 </i>
    <i name="atom">   1037.24027811 </i>
    <i name="e_fr_energy">     32.00833613 </i>
    <i name="e_wo_entrp">     32.01224203 </i>
    <i name="e_0_energy">     32.00963809 </i>
   </energy>
  </scstep>
  <scstep>
   <time name="dav">    0.34    0.34</time>
   <time name="total">    0.34    0.39</time>
   <energy>
    <i name="e_fr_energy">     -1.79190307 </i>
    <i name="e_wo_entrp">     -1.79262598 </i>
    <i name="e_0_energy">     -1.79214404 </i>
   </energy>
  </scstep>
  <scstep>
   <time name="dav">    0.38    0.38</time>
   <time name="total">    0.38    0.40</time>
   <energy>
    <i name="e_fr_energy">     -2.01099154 </i>
    <i name="e_wo_entrp">     -2.01174444 </i>
    <i name="e_0_energy">     -2.01124251 </i>
   </energy>
  </scstep>
  <scstep>
   <time name="dav">    0.38    0.38</time>
   <time name="total">    0.39    0.39</time>
   <energy>
    <i name="e_fr_energy">     -2.01134644 </i>
    <i name="e_wo_entrp">     -2.01209935 </i>
    <i name="e_0_energy">     -2.01159741 </i>
   </energy>
  </scstep>
  <scstep>
   <time name="dav">    0.35    0.35</time>
   <time name="total">    0.38    0.41</time>
   <energy>
    <i name="e_fr_energy">     -2.01134830 </i>
    <i name="e_wo_entrp">     -2.01210121 </i>
    <i name="e_0_energy">     -2.01159927 </i>
   </energy>
  </scstep>
  <scstep>
   <time name="dav">    0.35    0.35</time>
   <time name="total">    0.40    0.45</time>
   <energy>
    <i name="e_fr_energy">     -1.74709951 </i>
    <i name="e_wo_entrp">     -1.74769148 </i>
    <i name="e_0_energy">     -1.74729683 </i>
   </energy>
  </scstep>
  <scstep>
   <time name="dav">    0.39    0.39</time>
   <time name="total">    0.45    0.46</time>
   <energy>
    <i name="e_fr_energy">     -1.71042180 </i>
    <i name="e_wo_entrp">     -1.71090495 </i>
    <i name="e_0_energy">     -1.71058285 </i>
   </energy>
  </scstep>
  <scstep>
   <time name="dav">    0.35    0.36</time>
   <time name="total">    0.41    0.45</time>
   <energy>
    <i name="e_fr_energy">     -1.70495461 </i>
    <i name="e_wo_entrp">     -1.70543505 </i>
    <i name="e_0_energy">     -1.70511475 </i>
   </energy>
  </scstep>
  <scstep>
   <time name="dav">    0.23    0.23</time>
   <time name="total">    0.26    0.27</time>
   <energy>
    <i name="alphaZ">     68.21450308 </i>
    <i name="ewald">  -1085.10535231 </i>
    <i name="hartreedc">   -141.84036152 </i>
    <i name="XCdc">     -9.83052219 </i>
    <i name="pawpsdc">   1328.72913801 </i>
    <i name="pawaedc">  -1287.96530588 </i>
    <i name="eentropy">      0.00048097 </i>
    <i name="bandstr">     88.85217709 </i>
    <i name="atom">   1037.24027811 </i>
    <i name="e_fr_energy">     -1.70496464 </i>
    <i name="e_wo_entrp">     -1.70544561 </i>
    <i name="e_0_energy">     -1.70512496 </i>
   </energy>
  </scstep>
  <structure>
   <crystal>
    <varray name="basis" >
     <v>       2.60286006       0.00000000       0.00000000 </v>
     <v>       1.30143003       2.25414294       0.00000000 </v>
     <v>       1.30143003       0.75138098       2.12522634 </v>
    </varray>
    <i name="volume">     12.46916756 </i>
    <varray name="rec_basis" >
     <v>       0.38419276      -0.22181380      -0.15684604 </v>
     <v>       0.00000000       0.44362759      -0.15684604 </v>
     <v>       0.00000000       0.00000000       0.47053812 </v>
    </varray>
   </crystal>
   <varray name="positions" >
    <v>       0.00000000       0.00000000       0.00000000 </v>
   </varray>
  </structure>
  <varray name="forces" >
   <v>       0.00000000       0.00000000       0.00000000 </v>
  </varray>
  <varray name="stress" >
   <v>     881.31872796       0.00000000       0.00000000 </v>
   <v>       0.00000000     881.31872796       0.00000000 </v>
   <v>       0.00000000       0.00000000     881.31872796 </v>
  </varray>
  <energy>
   <i name="e_fr_energy">     -1.70496464 </i>
   <i name="e_wo_entrp">     -1.70512496 </i>
   <i name="e_0_energy">      0.00048097 </i>
  </energy>
  <time name="totalsc">    3.96    4.34</time>
  <eigenvalues>
   <array>
    <dimension dim="1">band</dimension>
    <dimension dim="2">kpoint</dimension>
    <dimension dim="3">spin</dimension>
    <field>eigene</field>
    <field>occ</field>
    <set>
     <set comment="spin 1">
      <set comment="kpoint 1">
       <r>    3.4182    1.0000 </r>
       <r>    7.3271    1.0000 </r>
       <r>    7.4368    1.0000 </r>
       <r>    7.4368    1.0000 </r>
       <r>    9.1407    1.0000 </r>
       <r>    9.1407    1.0000 </r>
       <r>   30.0889    0.0000 </r>
       <r>   34.3740    0.0000 </r>
       <r>   35.5897    0.0000 </r>
      </set>
      <set comment="kpoint 2">
       <r>    4.1970    1.0000 </r>
       <r>    7.0742    1.0000 </r>
       <r>    7.6736    1.0000 </r>
       <r>    7.7117    1.0000 </r>
       <r>    8.8912    1.0000 </r>
       <r>    9.2770    1.0000 </r>
       <r>   30.5897    0.0000 </r>
       <r>   31.7108    0.0000 </r>
       <r>   35.3013    0.0000 </r>
      </set>
      <set comment="kpoint 3">
       <r>    5.1518    1.0000 </r>
       <r>    7.4917    1.0000 </r>
       <r>    7.7562    1.0000 </r>
       <r>    7.8055    1.0000 </r>
       <r>    9.1690    1.0000 </r>
       <r>    9.9491    1.0000 </r>
       <r>   26.6011    0.0000 </r>
       <r>   30.9149    0.0000 </r>
       <r>   35.5666    0.0000 </r>
      </set>
      <set comment="kpoint 4">
       <r>    5.0134    1.0000 </r>
       <r>    7.3625    1.0000 </r>
       <r>    7.4906    1.0000 </r>
       <r>    9.5184    1.0000 </r>
       <r>   10.0512    1.0000 </r>
       <r>   11.6016    1.0000 </r>
       <r>   21.6816    0.0000 </r>
       <r>   29.7268    0.0000 </r>
       <r>   34.1218    0.0000 </r>
      </set>
      <set comment="kpoint 5">
       <r>    4.9043    1.0000 </r>
       <r>    7.2384    1.0000 </r>
       <r>    7.4208    1.0000 </r>
       <r>    9.9086    1.0000 </r>
       <r>   10.5361    1.0000 </r>
       <r>   12.9250    1.0000 </r>
       <r>   19.5274    0.0000 </r>
       <r>   29.3444    0.0000 </r>
       <r>   34.1687    0.0000 </r>
      </set>
      <set comment="kpoint 6">
       <r>    5.0874    1.0000 </r>
       <r>    7.4211    1.0000 </r>
       <r>    7.6150    1.0000 </r>
       <r>    8.7970    1.0000 </r>
       <r>   10.1958    1.0000 </r>
       <r>   10.6437    1.0000 </r>
       <r>   23.2377    0.0000 </r>
       <r>   30.1512    0.0000 </r>
       <r>   34.7965    0.0000 </r>
      </set>
      <set comment="kpoint 7">
       <r>    4.9632    1.0000 </r>
       <r>    7.1458    1.0000 </r>
       <r>    7.7599    1.0000 </r>
       <r>    7.8177    1.0000 </r>
       <r>    9.1222    1.0000 </r>
       <r>    9.5033    1.0000 </r>
       <r>   28.2444    0.0000 </r>
       <r>   31.3187    0.0000 </r>
       <r>   35.6562    0.0000 </r>
      </set>
      <set comment="kpoint 8">
       <r>    3.8266    1.0000 </r>
       <r>    7.1297    1.0000 </r>
       <r>    7.6087    1.0000 </r>
       <r>    7.6142    1.0000 </r>
       <r>    8.9268    1.0000 </r>
       <r>    9.2456    1.0000 </r>
       <r>   30.4999    0.0000 </r>
       <r>   33.0783    0.0000 </r>
       <r>   35.3334    0.0000 </r>
      </set>
      <set comment="kpoint 9">
       <r>    4.5597    1.0000 </r>
       <r>    6.7506    1.0000 </r>
       <r>    7.9270    1.0000 </r>
       <r>    7.9602    1.0000 </r>
       <r>    8.6677    1.0000 </r>
       <r>    9.4430    1.0000 </r>
       <r>   31.0894    0.0000 </r>
       <r>   31.9721    0.0000 </r>
       <r>   34.3695    0.0000 </r>
      </set>
      <set comment="kpoint 10">
       <r>    5.5440    1.0000 </r>
       <r>    6.4560    1.0000 </r>
       <r>    7.7019    1.0000 </r>
       <r>    8.3849    1.0000 </r>
       <r>    9.1515    1.0000 </r>
       <r>   10.1047    1.0000 </r>
       <r>   28.7347    0.0000 </r>
       <r>   30.7828    0.0000 </r>
       <r>   33.5560    0.0000 </r>
      </set>
      <set comment="kpoint 11">
       <r>    5.5479    1.0000 </r>
       <r>    7.0404    1.0000 </r>
       <r>    7.5774    1.0000 </r>
       <r>    8.2335    1.0000 </r>
       <r>   10.1784    1.0000 </r>
       <r>   12.2481    1.0000 </r>
       <r>   23.6070    0.0000 </r>
       <r>   29.9067    0.0000 </r>
       <r>   31.6715    0.0000 </r>
      </set>
      <set comment="kpoint 12">
       <r>    5.4288    1.0000 </r>
       <r>    6.8198    1.0000 </r>
       <r>    7.9522    1.0000 </r>
       <r>    8.5030    1.0000 </r>
       <r>   10.4605    1.0000 </r>
       <r>   15.0979    0.0000 </r>
       <r>   19.5583    0.0000 </r>
       <r>   29.1685    0.0000 </r>
       <r>   31.1829    0.0000 </r>
      </set>
      <set comment="kpoint 13">
       <r>    5.5933    1.0000 </r>
       <r>    6.9781    1.0000 </r>
       <r>    7.8983    1.0000 </r>
       <r>    8.2379    1.0000 </r>
       <r>    9.9328    1.0000 </r>
       <r>   13.4525    1.0057 </r>
       <r>   22.0617    0.0000 </r>
       <r>   28.8868    0.0000 </r>
       <r>   31.7510    0.0000 </r>
      </set>
      <set comment="kpoint 14">
       <r>    5.8420    1.0000 </r>
       <r>    6.7534    1.0000 </r>
       <r>    7.4801    1.0000 </r>
       <r>    8.3314    1.0000 </r>
       <r>    8.9219    1.0000 </r>
       <r>   11.0140    1.0000 </r>
       <r>   27.0798    0.0000 </r>
       <r>   29.3800    0.0000 </r>
       <r>   33.7089    0.0000 </r>
      </set>
      <set comment="kpoint 15">
       <r>    4.8547    1.0000 </r>
       <r>    6.8178    1.0000 </r>
       <r>    7.8202    1.0000 </r>
       <r>    7.9532    1.0000 </r>
       <r>    8.7745    1.0000 </r>
       <r>    9.5846    1.0000 </r>
       <r>   29.9269    0.0000 </r>
       <r>   31.1875    0.0000 </r>
       <r>   34.7980    0.0000 </r>
      </set>
      <set comment="kpoint 16">
       <r>    5.5396    1.0000 </r>
       <r>    5.8174    1.0000 </r>
       <r>    8.6106    1.0000 </r>
       <r>    9.0429    1.0000 </r>
       <r>    9.9409    1.0000 </r>
       <r>   10.0098    1.0000 </r>
       <r>   29.1598    0.0000 </r>
       <r>   30.4786    0.0000 </r>
       <r>   30.8094    0.0000 </r>
      </set>
      <set comment="kpoint 17">
       <r>    5.4477    1.0000 </r>
       <r>    5.6854    1.0000 </r>
       <r>    8.4695    1.0000 </r>
       <r>    9.5254    1.0000 </r>
       <r>   10.2620    1.0000 </r>
       <r>   12.6278    1.0000 </r>
       <r>   26.0179    0.0000 </r>
       <r>   28.1206    0.0000 </r>
       <r>   28.5301    0.0000 </r>
      </set>
      <set comment="kpoint 18">
       <r>    5.5066    1.0000 </r>
       <r>    6.1797    1.0000 </r>
       <r>    8.0129    1.0000 </r>
       <r>    9.0953    1.0000 </r>
       <r>   10.5512    1.0000 </r>
       <r>   16.5317    0.0000 </r>
       <r>   21.1736    0.0000 </r>
       <r>   26.2160    0.0000 </r>
       <r>   28.5910    0.0000 </r>
      </set>
      <set comment="kpoint 19">
       <r>    5.9956    1.0000 </r>
       <r>    6.7105    1.0000 </r>
       <r>    7.3610    1.0000 </r>
       <r>    8.7962    1.0000 </r>
       <r>    9.9808    1.0000 </r>
       <r>   16.7897    0.0000 </r>
       <r>   21.5682    0.0000 </r>
       <r>   24.6285    0.0000 </r>
       <r>   30.4042    0.0000 </r>
      </set>
      <set comment="kpoint 20">
       <r>    6.2331    1.0000 </r>
       <r>    6.8273    1.0000 </r>
       <r>    7.1932    1.0000 </r>
       <r>    8.5501    1.0000 </r>
       <r>    9.3864    1.0000 </r>
       <r>   13.5551    1.0237 </r>
       <r>   24.2436    0.0000 </r>
       <r>   26.6947    0.0000 </r>
       <r>   31.8991    0.0000 </r>
      </set>
      <set comment="kpoint 21">
       <r>    5.3720    1.0000 </r>
       <r>    7.4291    1.0000 </r>
       <r>    7.6817    1.0000 </r>
       <r>    7.9316    1.0000 </r>
       <r>    9.6011    1.0000 </r>
       <r>   10.8181    1.0000 </r>
       <r>   25.0675    0.0000 </r>
       <r>   30.4653    0.0000 </r>
       <r>   33.7593    0.0000 </r>
      </set>
      <set comment="kpoint 22">
       <r>    4.8876    1.0000 </r>
       <r>    5.1006    1.0000 </r>
       <r>   10.1327    1.0000 </r>
       <r>   10.1374    1.0000 </r>
       <r>   10.6054    1.0000 </r>
       <r>   13.4820    1.0093 </r>
       <r>   25.6607    0.0000 </r>
       <r>   26.2240    0.0000 </r>
       <r>   27.0573    0.0000 </r>
      </set>
      <set comment="kpoint 23">
       <r>    4.9162    1.0000 </r>
       <r>    5.2093    1.0000 </r>
       <r>    9.5784    1.0000 </r>
       <r>   10.1031    1.0000 </r>
       <r>   10.8015    1.0000 </r>
       <r>   16.3212    0.0000 </r>
       <r>   23.5386    0.0000 </r>
       <r>   24.2376    0.0000 </r>
       <r>   26.1922    0.0000 </r>
      </set>
      <set comment="kpoint 24">
       <r>    5.3931    1.0000 </r>
       <r>    6.0293    1.0000 </r>
       <r>    8.2465    1.0000 </r>
       <r>    9.3886    1.0000 </r>
       <r>   10.4982    1.0000 </r>
       <r>   18.7276    0.0000 </r>
       <r>   20.5177    0.0000 </r>
       <r>   23.8061    0.0000 </r>
       <r>   28.1379    0.0000 </r>
      </set>
      <set comment="kpoint 25">
       <r>    5.7971    1.0000 </r>
       <r>    6.5942    1.0000 </r>
       <r>    7.9089    1.0000 </r>
       <r>    8.3918    1.0000 </r>
       <r>   10.2706    1.0000 </r>
       <r>   16.5056    0.0000 </r>
       <r>   19.7664    0.0000 </r>
       <r>   27.2280    0.0000 </r>
       <r>   30.5023    0.0000 </r>
      </set>
      <set comment="kpoint 26">
       <r>    5.1385    1.0000 </r>
       <r>    7.1263    1.0000 </r>
       <r>    7.6307    1.0000 </r>
       <r>    9.0943    1.0000 </r>
       <r>   10.3826    1.0000 </r>
       <r>   13.2149    1.0000 </r>
       <r>   20.4111    0.0000 </r>
       <r>   29.5592    0.0000 </r>
       <r>   32.8014    0.0000 </r>
      </set>
      <set comment="kpoint 27">
       <r>    4.6745    1.0000 </r>
       <r>    4.9422    1.0000 </r>
       <r>   10.3744    1.0000 </r>
       <r>   10.5374    1.0000 </r>
       <r>   10.8248    1.0000 </r>
       <r>   15.1112    0.0000 </r>
       <r>   23.6094    0.0000 </r>
       <r>   25.4375    0.0000 </r>
       <r>   26.2437    0.0000 </r>
      </set>
      <set comment="kpoint 28">
       <r>    5.1232    1.0000 </r>
       <r>    5.3654    1.0000 </r>
       <r>    9.1127    1.0000 </r>
       <r>    9.9781    1.0000 </r>
       <r>   10.5766    1.0000 </r>
       <r>   14.6038    0.0000 </r>
       <r>   24.7890    0.0000 </r>
       <r>   25.8124    0.0000 </r>
       <r>   26.8850    0.0000 </r>
      </set>
      <set comment="kpoint 29">
       <r>    5.5965    1.0000 </r>
       <r>    6.5316    1.0000 </r>
       <r>    7.7290    1.0000 </r>
       <r>    8.6594    1.0000 </r>
       <r>   10.4846    1.0000 </r>
       <r>   14.2280   -0.0153 </r>
       <r>   22.2607    0.0000 </r>
       <r>   28.7378    0.0000 </r>
       <r>   29.5887    0.0000 </r>
      </set>
      <set comment="kpoint 30">
       <r>    5.2431    1.0000 </r>
       <r>    5.4049    1.0000 </r>
       <r>    9.4343    1.0000 </r>
       <r>    9.6517    1.0000 </r>
       <r>   10.3152    1.0000 </r>
       <r>   11.5274    1.0000 </r>
       <r>   27.5791    0.0000 </r>
       <r>   28.3780    0.0000 </r>
       <r>   28.5421    0.0000 </r>
      </set>
      <set comment="kpoint 31">
       <r>    5.7234    1.0000 </r>
       <r>    6.0918    1.0000 </r>
       <r>    7.8614    1.0000 </r>
       <r>    8.9329    1.0000 </r>
       <r>    9.7974    1.0000 </r>
       <r>   11.0401    1.0000 </r>
       <r>   27.4137    0.0000 </r>
       <r>   29.6050    0.0000 </r>
       <r>   31.2009    0.0000 </r>
      </set>
      <set comment="kpoint 32">
       <r>    5.3259    1.0000 </r>
       <r>    6.2852    1.0000 </r>
       <r>    8.1095    1.0000 </r>
       <r>    8.4510    1.0000 </r>
       <r>    8.9573    1.0000 </r>
       <r>    9.7087    1.0000 </r>
       <r>   30.5065    0.0000 </r>
       <r>   32.0119    0.0000 </r>
       <r>   32.5760    0.0000 </r>
      </set>
      <set comment="kpoint 33">
       <r>    4.4839    1.0000 </r>
       <r>    7.1773    1.0000 </r>
       <r>    7.7021    1.0000 </r>
       <r>    7.7021    1.0000 </r>
       <r>    9.1248    1.0000 </r>
       <r>    9.1248    1.0000 </r>
       <r>   29.6450    0.0000 </r>
       <r>   31.3338    0.0000 </r>
       <r>   36.9006    0.0000 </r>
      </set>
      <set comment="kpoint 34">
       <r>    5.3504    1.0000 </r>
       <r>    6.8375    1.0000 </r>
       <r>    7.7649    1.0000 </r>
       <r>    8.0539    1.0000 </r>
       <r>    8.6581    1.0000 </r>
       <r>   10.1472    1.0000 </r>
       <r>   28.4571    0.0000 </r>
       <r>   30.4082    0.0000 </r>
       <r>   35.0986    0.0000 </r>
      </set>
      <set comment="kpoint 35">
       <r>    6.0692    1.0000 </r>
       <r>    6.9170    1.0000 </r>
       <r>    7.4904    1.0000 </r>
       <r>    8.2457    1.0000 </r>
       <r>    8.9491    1.0000 </r>
       <r>   12.1470    1.0000 </r>
       <r>   25.5994    0.0000 </r>
       <r>   27.9936    0.0000 </r>
       <r>   33.2237    0.0000 </r>
      </set>
      <set comment="kpoint 36">
       <r>    5.6689    1.0000 </r>
       <r>    6.8332    1.0000 </r>
       <r>    8.0687    1.0000 </r>
       <r>    8.2263    1.0000 </r>
       <r>   10.0047    1.0000 </r>
       <r>   14.8732    0.0000 </r>
       <r>   20.7541    0.0000 </r>
       <r>   27.9299    0.0000 </r>
       <r>   32.1156    0.0000 </r>
      </set>
      <set comment="kpoint 37">
       <r>    5.4706    1.0000 </r>
       <r>    6.7678    1.0000 </r>
       <r>    8.1064    1.0000 </r>
       <r>    8.1740    1.0000 </r>
       <r>   10.5894    1.0000 </r>
       <r>   14.6904    0.0000 </r>
       <r>   20.5519    0.0000 </r>
       <r>   28.9186    0.0000 </r>
       <r>   31.6841    0.0000 </r>
      </set>
      <set comment="kpoint 38">
       <r>    5.5700    1.0000 </r>
       <r>    6.5979    1.0000 </r>
       <r>    7.6906    1.0000 </r>
       <r>    8.4353    1.0000 </r>
       <r>   10.3172    1.0000 </r>
       <r>   11.3103    1.0000 </r>
       <r>   25.4100    0.0000 </r>
       <r>   30.5780    0.0000 </r>
       <r>   31.4838    0.0000 </r>
      </set>
      <set comment="kpoint 39">
       <r>    5.4189    1.0000 </r>
       <r>    6.9828    1.0000 </r>
       <r>    7.5855    1.0000 </r>
       <r>    8.0621    1.0000 </r>
       <r>    9.8699    1.0000 </r>
       <r>    9.9301    1.0000 </r>
       <r>   26.8397    0.0000 </r>
       <r>   31.2479    0.0000 </r>
       <r>   33.5860    0.0000 </r>
      </set>
      <set comment="kpoint 40">
       <r>    6.0076    1.0000 </r>
       <r>    6.6119    1.0000 </r>
       <r>    7.2026    1.0000 </r>
       <r>    8.8076    1.0000 </r>
       <r>    9.5085    1.0000 </r>
       <r>   12.2501    1.0000 </r>
       <r>   25.7362    0.0000 </r>
       <r>   28.1516    0.0000 </r>
       <r>   31.4456    0.0000 </r>
      </set>
      <set comment="kpoint 41">
       <r>    6.3379    1.0000 </r>
       <r>    6.4503    1.0000 </r>
       <r>    7.0532    1.0000 </r>
       <r>    8.9451    1.0000 </r>
       <r>    9.9405    1.0000 </r>
       <r>   15.3430    0.0000 </r>
       <r>   22.9977    0.0000 </r>
       <r>   25.6214    0.0000 </r>
       <r>   29.4609    0.0000 </r>
      </set>
      <set comment="kpoint 42">
       <r>    5.9645    1.0000 </r>
       <r>    6.3680    1.0000 </r>
       <r>    7.5102    1.0000 </r>
       <r>    8.8209    1.0000 </r>
       <r>   10.4244    1.0000 </r>
       <r>   17.6017    0.0000 </r>
       <r>   19.9360    0.0000 </r>
       <r>   26.8060    0.0000 </r>
       <r>   27.7034    0.0000 </r>
      </set>
      <set comment="kpoint 43">
       <r>    5.8332    1.0000 </r>
       <r>    6.1702    1.0000 </r>
       <r>    7.5399    1.0000 </r>
       <r>    9.3101    1.0000 </r>
       <r>   10.0464    1.0000 </r>
       <r>   13.9631    0.1562 </r>
       <r>   24.4466    0.0000 </r>
       <r>   26.9221    0.0000 </r>
       <r>   28.8317    0.0000 </r>
      </set>
      <set comment="kpoint 44">
       <r>    5.4343    1.0000 </r>
       <r>    6.0904    1.0000 </r>
       <r>    8.2099    1.0000 </r>
       <r>    8.9059    1.0000 </r>
       <r>   10.5848    1.0000 </r>
       <r>   13.2187    1.0000 </r>
       <r>   24.0096    0.0000 </r>
       <r>   28.5606    0.0000 </r>
       <r>   29.7160    0.0000 </r>
      </set>
      <set comment="kpoint 45">
       <r>    5.5486    1.0000 </r>
       <r>    5.8457    1.0000 </r>
       <r>    8.0297    1.0000 </r>
       <r>    9.5895    1.0000 </r>
       <r>   10.4912    1.0000 </r>
       <r>   16.0429    0.0000 </r>
       <r>   23.3734    0.0000 </r>
       <r>   25.8286    0.0000 </r>
       <r>   26.1940    0.0000 </r>
      </set>
      <set comment="kpoint 46">
       <r>    5.7497    1.0000 </r>
       <r>    6.4046    1.0000 </r>
       <r>    7.3224    1.0000 </r>
       <r>    9.1581    1.0000 </r>
       <r>   10.7910    1.0000 </r>
       <r>   19.7153    0.0000 </r>
       <r>   21.3444    0.0000 </r>
       <r>   23.8160    0.0000 </r>
       <r>   24.7527    0.0000 </r>
      </set>
      <set comment="kpoint 47">
       <r>    5.9884    1.0000 </r>
       <r>    6.4169    1.0000 </r>
       <r>    7.1654    1.0000 </r>
       <r>    9.1417    1.0000 </r>
       <r>   10.4542    1.0000 </r>
       <r>   17.5000    0.0000 </r>
       <r>   21.9615    0.0000 </r>
       <r>   24.8678    0.0000 </r>
       <r>   26.6488    0.0000 </r>
      </set>
      <set comment="kpoint 48">
       <r>    5.0550    1.0000 </r>
       <r>    5.5335    1.0000 </r>
       <r>    9.1220    1.0000 </r>
       <r>    9.7865    1.0000 </r>
       <r>   10.6208    1.0000 </r>
       <r>   17.2897    0.0000 </r>
       <r>   22.1667    0.0000 </r>
       <r>   23.7033    0.0000 </r>
       <r>   27.7953    0.0000 </r>
      </set>
      <set comment="kpoint 49">
       <r>    5.3399    1.0000 </r>
       <r>    5.7120    1.0000 </r>
       <r>    8.4082    1.0000 </r>
       <r>    9.6029    1.0000 </r>
       <r>   10.7933    1.0000 </r>
       <r>   17.9817    0.0000 </r>
       <r>   22.7323    0.0000 </r>
       <r>   23.7293    0.0000 </r>
       <r>   25.4783    0.0000 </r>
      </set>
      <set comment="kpoint 50">
       <r>    5.2138    1.0000 </r>
       <r>    5.7134    1.0000 </r>
       <r>    8.7682    1.0000 </r>
       <r>    9.4021    1.0000 </r>
       <r>   10.6773    1.0000 </r>
       <r>   15.3868    0.0000 </r>
       <r>   22.8431    0.0000 </r>
       <r>   25.9180    0.0000 </r>
       <r>   28.4528    0.0000 </r>
      </set>
      <set comment="kpoint 51">
       <r>    5.0435    1.0000 </r>
       <r>    7.5958    1.0000 </r>
       <r>    7.5958    1.0000 </r>
       <r>    8.6464    1.0000 </r>
       <r>    9.7189    1.0000 </r>
       <r>    9.7189    1.0000 </r>
       <r>   24.8327    0.0000 </r>
       <r>   30.5183    0.0000 </r>
       <r>   37.0531    0.0000 </r>
      </set>
      <set comment="kpoint 52">
       <r>    5.4328    1.0000 </r>
       <r>    7.2740    1.0000 </r>
       <r>    7.8053    1.0000 </r>
       <r>    8.2724    1.0000 </r>
       <r>    9.5191    1.0000 </r>
       <r>   11.9564    1.0000 </r>
       <r>   23.4830    0.0000 </r>
       <r>   29.6485    0.0000 </r>
       <r>   32.9758    0.0000 </r>
      </set>
      <set comment="kpoint 53">
       <r>    6.1456    1.0000 </r>
       <r>    6.8418    1.0000 </r>
       <r>    7.4167    1.0000 </r>
       <r>    8.4950    1.0000 </r>
       <r>    9.5718    1.0000 </r>
       <r>   15.0278    0.0000 </r>
       <r>   22.8717    0.0000 </r>
       <r>   25.4707    0.0000 </r>
       <r>   32.5587    0.0000 </r>
      </set>
      <set comment="kpoint 54">
       <r>    5.6062    1.0000 </r>
       <r>    6.4715    1.0000 </r>
       <r>    7.8576    1.0000 </r>
       <r>    9.0500    1.0000 </r>
       <r>   10.1745    1.0000 </r>
       <r>   18.3913    0.0000 </r>
       <r>   20.1672    0.0000 </r>
       <r>   24.0603    0.0000 </r>
       <r>   30.4751    0.0000 </r>
      </set>
      <set comment="kpoint 55">
       <r>    5.2558    1.0000 </r>
       <r>    7.1227    1.0000 </r>
       <r>    7.8155    1.0000 </r>
       <r>    8.4094    1.0000 </r>
       <r>   10.5072    1.0000 </r>
       <r>   12.4961    1.0000 </r>
       <r>   21.7964    0.0000 </r>
       <r>   29.9186    0.0000 </r>
       <r>   32.9922    0.0000 </r>
      </set>
      <set comment="kpoint 56">
       <r>    5.8223    1.0000 </r>
       <r>    6.5902    1.0000 </r>
       <r>    7.7388    1.0000 </r>
       <r>    8.4659    1.0000 </r>
       <r>   10.2848    1.0000 </r>
       <r>   15.3811    0.0000 </r>
       <r>   20.8274    0.0000 </r>
       <r>   28.1927    0.0000 </r>
       <r>   29.5847    0.0000 </r>
      </set>
      <set comment="kpoint 57">
       <r>    5.8626    1.0000 </r>
       <r>    6.4849    1.0000 </r>
       <r>    7.3448    1.0000 </r>
       <r>    9.0505    1.0000 </r>
       <r>   10.4533    1.0000 </r>
       <r>   18.8924    0.0000 </r>
       <r>   20.4688    0.0000 </r>
       <r>   24.1517    0.0000 </r>
       <r>   27.4396    0.0000 </r>
      </set>
      <set comment="kpoint 58">
       <r>    5.6039    1.0000 </r>
       <r>    6.5272    1.0000 </r>
       <r>    7.9315    1.0000 </r>
       <r>    8.6328    1.0000 </r>
       <r>   10.4384    1.0000 </r>
       <r>   17.0225    0.0000 </r>
       <r>   19.6965    0.0000 </r>
       <r>   26.5678    0.0000 </r>
       <r>   30.8621    0.0000 </r>
      </set>
      <set comment="kpoint 59">
       <r>    4.8376    1.0000 </r>
       <r>    7.3576    1.0000 </r>
       <r>    7.3576    1.0000 </r>
       <r>   10.4181    1.0000 </r>
       <r>   10.4181    1.0000 </r>
       <r>   11.6001    1.0000 </r>
       <r>   20.3286    0.0000 </r>
       <r>   29.3818    0.0000 </r>
       <r>   35.0220    0.0000 </r>
      </set>
      <set comment="kpoint 60">
       <r>    5.1969    1.0000 </r>
       <r>    7.0317    1.0000 </r>
       <r>    7.6705    1.0000 </r>
       <r>    9.0881    1.0000 </r>
       <r>   10.3805    1.0000 </r>
       <r>   14.2210   -0.0167 </r>
       <r>   19.5520    0.0000 </r>
       <r>   29.3226    0.0000 </r>
       <r>   32.5315    0.0000 </r>
      </set>
     </set>
    </set>
   </array>
  </eigenvalues>
  <separator name="orbital magnetization" >
   <v name="MAGDIPOLOUT">      0.00000000      0.00000000      0.00000000</v>
  </separator>
  <dos>
   <i name="efermi">     13.87233171 </i>
   <total>
    <array>
     <dimension dim="1">gridpoints</dimension>
     <dimension dim="2">spin</dimension>
     <field>energy</field>
     <field>total</field>
     <field>integrated</field>
     <set>
      <set comment="spin 1">
       <r>     1.4182     0.0000     0.0000 </r>
       <r>     1.5437     0.0000     0.0000 </r>
       <r>     1.6691     0.0000     0.0000 </r>
       <r>     1.7946     0.0000     0.0000 </r>
       <r>     1.9200     0.0000     0.0000 </r>
       <r>     2.0455     0.0000     0.0000 </r>
       <r>     2.1709     0.0000     0.0000 </r>
       <r>     2.2964     0.0000     0.0000 </r>
       <r>     2.4218     0.0000     0.0000 </r>
       <r>     2.5473     0.0000     0.0000 </r>
       <r>     2.6727     0.0000     0.0000 </r>
       <r>     2.7982     0.0000     0.0000 </r>
       <r>     2.9236    -0.0001     0.0000 </r>
       <r>     3.0491    -0.0007    -0.0001 </r>
       <r>     3.1745    -0.0014    -0.0003 </r>
       <r>     3.3000     0.0073     0.0006 </r>
       <r>     3.4254     0.0265     0.0040 </r>
       <r>     3.5509     0.0213     0.0066 </r>
       <r>     3.6763     0.0158     0.0086 </r>
       <r>     3.8018     0.0665     0.0170 </r>
       <r>     3.9272     0.0837     0.0275 </r>
       <r>     4.0527     0.0422     0.0328 </r>
       <r>     4.1781     0.0657     0.0410 </r>
       <r>     4.3036     0.0787     0.0509 </r>
       <r>     4.4290     0.0542     0.0577 </r>
       <r>     4.5544     0.1031     0.0706 </r>
       <r>     4.6799     0.1556     0.0901 </r>
       <r>     4.8053     0.3399     0.1328 </r>
       <r>     4.9308     0.7636     0.2286 </r>
       <r>     5.0562     1.0591     0.3614 </r>
       <r>     5.1817     1.2417     0.5172 </r>
       <r>     5.3071     1.5368     0.7100 </r>
       <r>     5.4326     2.1366     0.9780 </r>
       <r>     5.5580     2.4995     1.2916 </r>
       <r>     5.6835     2.2898     1.5788 </r>
       <r>     5.8089     2.0670     1.8381 </r>
       <r>     5.9344     1.8835     2.0744 </r>
       <r>     6.0598     1.6306     2.2790 </r>
       <r>     6.1853     1.3216     2.4448 </r>
       <r>     6.3107     1.1341     2.5870 </r>
       <r>     6.4362     1.4719     2.7717 </r>
       <r>     6.5616     1.7136     2.9867 </r>
       <r>     6.6871     1.4959     3.1743 </r>
       <r>     6.8125     1.4368     3.3546 </r>
       <r>     6.9380     1.3706     3.5265 </r>
       <r>     7.0634     1.3813     3.6998 </r>
       <r>     7.1889     1.5925     3.8996 </r>
       <r>     7.3143     1.6244     4.1034 </r>
       <r>     7.4398     1.8192     4.3316 </r>
       <r>     7.5652     2.1289     4.5986 </r>
       <r>     7.6907     2.4143     4.9015 </r>
       <r>     7.8161     2.5844     5.2257 </r>
       <r>     7.9416     2.4526     5.5334 </r>
       <r>     8.0670     1.9156     5.7737 </r>
       <r>     8.1925     1.4312     5.9533 </r>
       <r>     8.3179     1.5535     6.1481 </r>
       <r>     8.4434     1.8057     6.3747 </r>
       <r>     8.5688     1.6019     6.5756 </r>
       <r>     8.6943     1.2490     6.7323 </r>
       <r>     8.8197     1.4144     6.9098 </r>
       <r>     8.9452     1.7909     7.1344 </r>
       <r>     9.0706     2.1379     7.4026 </r>
       <r>     9.1961     2.0690     7.6622 </r>
       <r>     9.3215     1.3603     7.8328 </r>
       <r>     9.4470     1.3220     7.9987 </r>
       <r>     9.5724     1.8681     8.2330 </r>
       <r>     9.6979     1.5817     8.4315 </r>
       <r>     9.8233     0.9983     8.5567 </r>
       <r>     9.9488     1.4057     8.7330 </r>
       <r>    10.0742     1.9034     8.9718 </r>
       <r>    10.1997     1.7449     9.1907 </r>
       <r>    10.3251     1.6971     9.4036 </r>
       <r>    10.4506     2.2658     9.6878 </r>
       <r>    10.5760     2.4321     9.9930 </r>
       <r>    10.7015     1.6160    10.1957 </r>
       <r>    10.8269     1.0292    10.3248 </r>
       <r>    10.9524     0.7322    10.4166 </r>
       <r>    11.0778     0.4347    10.4712 </r>
       <r>    11.2033     0.2008    10.4964 </r>
       <r>    11.3287     0.0832    10.5068 </r>
       <r>    11.4542     0.1144    10.5212 </r>
       <r>    11.5796     0.1954    10.5457 </r>
       <r>    11.7051     0.1624    10.5660 </r>
       <r>    11.8305     0.0515    10.5725 </r>
       <r>    11.9560     0.0548    10.5794 </r>
       <r>    12.0814     0.1459    10.5977 </r>
       <r>    12.2069     0.3493    10.6415 </r>
       <r>    12.3323     0.4147    10.6935 </r>
       <r>    12.4578     0.2280    10.7221 </r>
       <r>    12.5832     0.1968    10.7468 </r>
       <r>    12.7087     0.2059    10.7727 </r>
       <r>    12.8341     0.1058    10.7859 </r>
       <r>    12.9596     0.0708    10.7948 </r>
       <r>    13.0850     0.1024    10.8077 </r>
       <r>    13.2105     0.2228    10.8356 </r>
       <r>    13.3359     0.2963    10.8728 </r>
       <r>    13.4614     0.3704    10.9193 </r>
       <r>    13.5868     0.4061    10.9702 </r>
       <r>    13.7123     0.1767    10.9924 </r>
       <r>    13.8377     0.0370    10.9970 </r>
       <r>    13.9632     0.1325    11.0136 </r>
       <r>    14.0886     0.2027    11.0391 </r>
       <r>    14.2141     0.2621    11.0719 </r>
       <r>    14.3395     0.2338    11.1013 </r>
       <r>    14.4650     0.0929    11.1129 </r>
       <r>    14.5904     0.1623    11.1333 </r>
       <r>    14.7159     0.2527    11.1650 </r>
       <r>    14.8413     0.1716    11.1865 </r>
       <r>    14.9668     0.1830    11.2095 </r>
       <r>    15.0922     0.3255    11.2503 </r>
       <r>    15.2177     0.3547    11.2948 </r>
       <r>    15.3431     0.4162    11.3470 </r>
       <r>    15.4686     0.4209    11.3998 </r>
       <r>    15.5940     0.1431    11.4178 </r>
       <r>    15.7195    -0.0227    11.4149 </r>
       <r>    15.8449    -0.0146    11.4131 </r>
       <r>    15.9704     0.0816    11.4233 </r>
       <r>    16.0958     0.1768    11.4455 </r>
       <r>    16.2213     0.1544    11.4649 </r>
       <r>    16.3467     0.2027    11.4903 </r>
       <r>    16.4722     0.3563    11.5350 </r>
       <r>    16.5976     0.3888    11.5837 </r>
       <r>    16.7231     0.2468    11.6147 </r>
       <r>    16.8485     0.1847    11.6379 </r>
       <r>    16.9740     0.1436    11.6559 </r>
       <r>    17.0994     0.0928    11.6675 </r>
       <r>    17.2249     0.0697    11.6763 </r>
       <r>    17.3503     0.1038    11.6893 </r>
       <r>    17.4758     0.2251    11.7175 </r>
       <r>    17.6012     0.3360    11.7597 </r>
       <r>    17.7267     0.2087    11.7859 </r>
       <r>    17.8521     0.0669    11.7943 </r>
       <r>    17.9776     0.1427    11.8122 </r>
       <r>    18.1030     0.1555    11.8317 </r>
       <r>    18.2285     0.0480    11.8377 </r>
       <r>    18.3539     0.0504    11.8440 </r>
       <r>    18.4794     0.0766    11.8536 </r>
       <r>    18.6048     0.0680    11.8621 </r>
       <r>    18.7303     0.1753    11.8841 </r>
       <r>    18.8557     0.2833    11.9197 </r>
       <r>    18.9812     0.2190    11.9471 </r>
       <r>    19.1066     0.0604    11.9547 </r>
       <r>    19.2321    -0.0244    11.9517 </r>
       <r>    19.3575    -0.0130    11.9500 </r>
       <r>    19.4830     0.1714    11.9715 </r>
       <r>    19.6084     0.4740    12.0310 </r>
       <r>    19.7339     0.6010    12.1064 </r>
       <r>    19.8593     0.4787    12.1664 </r>
       <r>    19.9848     0.2696    12.2003 </r>
       <r>    20.1102     0.1279    12.2163 </r>
       <r>    20.2357     0.0903    12.2276 </r>
       <r>    20.3611     0.2501    12.2590 </r>
       <r>    20.4866     0.5515    12.3282 </r>
       <r>    20.6120     0.5139    12.3926 </r>
       <r>    20.7375     0.2829    12.4281 </r>
       <r>    20.8629     0.2403    12.4583 </r>
       <r>    20.9884     0.1395    12.4758 </r>
       <r>    21.1138     0.1033    12.4887 </r>
       <r>    21.2393     0.2252    12.5170 </r>
       <r>    21.3647     0.2624    12.5499 </r>
       <r>    21.4902     0.2240    12.5780 </r>
       <r>    21.6156     0.2463    12.6089 </r>
       <r>    21.7411     0.2387    12.6388 </r>
       <r>    21.8665     0.2100    12.6652 </r>
       <r>    21.9920     0.3063    12.7036 </r>
       <r>    22.1174     0.3978    12.7535 </r>
       <r>    22.2429     0.3587    12.7985 </r>
       <r>    22.3683     0.2067    12.8244 </r>
       <r>    22.4938     0.0295    12.8281 </r>
       <r>    22.6192     0.0249    12.8313 </r>
       <r>    22.7447     0.2057    12.8571 </r>
       <r>    22.8701     0.3541    12.9015 </r>
       <r>    22.9956     0.3302    12.9429 </r>
       <r>    23.1210     0.1923    12.9670 </r>
       <r>    23.2465     0.1286    12.9832 </r>
       <r>    23.3719     0.2391    13.0132 </r>
       <r>    23.4974     0.4353    13.0678 </r>
       <r>    23.6228     0.6501    13.1493 </r>
       <r>    23.7483     0.7573    13.2443 </r>
       <r>    23.8737     0.6070    13.3205 </r>
       <r>    23.9992     0.3352    13.3625 </r>
       <r>    24.1246     0.3869    13.4111 </r>
       <r>    24.2501     0.5640    13.4818 </r>
       <r>    24.3755     0.4380    13.5368 </r>
       <r>    24.5010     0.2513    13.5683 </r>
       <r>    24.6264     0.2850    13.6041 </r>
       <r>    24.7519     0.5010    13.6669 </r>
       <r>    24.8773     0.5779    13.7394 </r>
       <r>    25.0028     0.3691    13.7857 </r>
       <r>    25.1282     0.1856    13.8090 </r>
       <r>    25.2537     0.0730    13.8182 </r>
       <r>    25.3791     0.1898    13.8420 </r>
       <r>    25.5046     0.5095    13.9059 </r>
       <r>    25.6300     0.6580    13.9884 </r>
       <r>    25.7555     0.6987    14.0761 </r>
       <r>    25.8809     0.6391    14.1563 </r>
       <r>    26.0064     0.4460    14.2122 </r>
       <r>    26.1318     0.5332    14.2791 </r>
       <r>    26.2573     0.7522    14.3735 </r>
       <r>    26.3827     0.4232    14.4266 </r>
       <r>    26.5082     0.1305    14.4429 </r>
       <r>    26.6336     0.3882    14.4916 </r>
       <r>    26.7591     0.6625    14.5747 </r>
       <r>    26.8845     0.7222    14.6653 </r>
       <r>    27.0100     0.6135    14.7423 </r>
       <r>    27.1354     0.4318    14.7965 </r>
       <r>    27.2609     0.3243    14.8372 </r>
       <r>    27.3863     0.3609    14.8824 </r>
       <r>    27.5118     0.4125    14.9342 </r>
       <r>    27.6372     0.3309    14.9757 </r>
       <r>    27.7627     0.2844    15.0114 </r>
       <r>    27.8881     0.2357    15.0409 </r>
       <r>    28.0136     0.3334    15.0828 </r>
       <r>    28.1390     0.7054    15.1713 </r>
       <r>    28.2645     0.7565    15.2662 </r>
       <r>    28.3899     0.4753    15.3258 </r>
       <r>    28.5154     0.5845    15.3991 </r>
       <r>    28.6408     0.7537    15.4937 </r>
       <r>    28.7663     0.7366    15.5861 </r>
       <r>    28.8917     0.6592    15.6688 </r>
       <r>    29.0172     0.3828    15.7168 </r>
       <r>    29.1426     0.2386    15.7467 </r>
       <r>    29.2681     0.3623    15.7922 </r>
       <r>    29.3935     0.5574    15.8621 </r>
       <r>    29.5190     0.8561    15.9695 </r>
       <r>    29.6444     1.0448    16.1006 </r>
       <r>    29.7699     0.7450    16.1940 </r>
       <r>    29.8953     0.4959    16.2563 </r>
       <r>    30.0208     0.4330    16.3106 </r>
       <r>    30.1462     0.1976    16.3354 </r>
       <r>    30.2717     0.1025    16.3482 </r>
       <r>    30.3971     0.5326    16.4150 </r>
       <r>    30.5226     1.0782    16.5503 </r>
       <r>    30.6480     0.8217    16.6534 </r>
       <r>    30.7735     0.4099    16.7048 </r>
       <r>    30.8989     0.3546    16.7493 </r>
       <r>    31.0244     0.2877    16.7854 </r>
       <r>    31.1498     0.5084    16.8492 </r>
       <r>    31.2753     0.7569    16.9441 </r>
       <r>    31.4007     0.5526    17.0134 </r>
       <r>    31.5262     0.3507    17.0574 </r>
       <r>    31.6516     0.4235    17.1106 </r>
       <r>    31.7771     0.5670    17.1817 </r>
       <r>    31.9025     0.4979    17.2442 </r>
       <r>    32.0280     0.3839    17.2923 </r>
       <r>    32.1534     0.2299    17.3212 </r>
       <r>    32.2789     0.0520    17.3277 </r>
       <r>    32.4043     0.0236    17.3306 </r>
       <r>    32.5298     0.1885    17.3543 </r>
       <r>    32.6552     0.2788    17.3893 </r>
       <r>    32.7807     0.2295    17.4180 </r>
       <r>    32.9061     0.2513    17.4496 </r>
       <r>    33.0316     0.2931    17.4863 </r>
       <r>    33.1570     0.2444    17.5170 </r>
       <r>    33.2825     0.1232    17.5324 </r>
       <r>    33.4079     0.0535    17.5391 </r>
       <r>    33.5334     0.1940    17.5635 </r>
       <r>    33.6588     0.4389    17.6185 </r>
       <r>    33.7843     0.4619    17.6765 </r>
       <r>    33.9097     0.2104    17.7029 </r>
       <r>    34.0351     0.0598    17.7104 </r>
       <r>    34.1606     0.1494    17.7291 </r>
       <r>    34.2860     0.1929    17.7533 </r>
       <r>    34.4115     0.1468    17.7717 </r>
       <r>    34.5369     0.0593    17.7792 </r>
       <r>    34.6624     0.0500    17.7854 </r>
       <r>    34.7878     0.2184    17.8128 </r>
       <r>    34.9133     0.2594    17.8454 </r>
       <r>    35.0387     0.1410    17.8631 </r>
       <r>    35.1642     0.1242    17.8787 </r>
       <r>    35.2896     0.1735    17.9004 </r>
       <r>    35.4151     0.1834    17.9234 </r>
       <r>    35.5405     0.1711    17.9449 </r>
       <r>    35.6660     0.1983    17.9698 </r>
       <r>    35.7914     0.1161    17.9843 </r>
       <r>    35.9169     0.0113    17.9857 </r>
       <r>    36.0423    -0.0085    17.9847 </r>
       <r>    36.1678    -0.0022    17.9844 </r>
       <r>    36.2932    -0.0002    17.9844 </r>
       <r>    36.4187    -0.0001    17.9844 </r>
       <r>    36.5441    -0.0009    17.9842 </r>
       <r>    36.6696    -0.0018    17.9840 </r>
       <r>    36.7950     0.0078    17.9850 </r>
       <r>    36.9205     0.0347    17.9894 </r>
       <r>    37.0459     0.0499    17.9956 </r>
       <r>    37.1714     0.0318    17.9996 </r>
       <r>    37.2968     0.0059    18.0003 </r>
       <r>    37.4223    -0.0019    18.0001 </r>
       <r>    37.5477    -0.0008    18.0000 </r>
       <r>    37.6732    -0.0001    18.0000 </r>
       <r>    37.7986     0.0000    18.0000 </r>
       <r>    37.9241     0.0000    18.0000 </r>
       <r>    38.0495     0.0000    18.0000 </r>
       <r>    38.1750     0.0000    18.0000 </r>
       <r>    38.3004     0.0000    18.0000 </r>
       <r>    38.4259     0.0000    18.0000 </r>
       <r>    38.5513     0.0000    18.0000 </r>
       <r>    38.6768     0.0000    18.0000 </r>
       <r>    38.8022     0.0000    18.0000 </r>
       <r>    38.9277     0.0000    18.0000 </r>
       <r>    39.0531     0.0000    18.0000 </r>
      </set>
     </set>
    </array>
   </total>
  </dos>
 </calculation>
 <structure name="finalpos" >
  <crystal>
   <varray name="basis" >
    <v>       2.60286006       0.00000000       0.00000000 </v>
    <v>       1.30143003       2.25414294       0.00000000 </v>
    <v>       1.30143003       0.75138098       2.12522634 </v>
   </varray>
   <i name="volume">     12.46916756 </i>
   <varray name="rec_basis" >
    <v>       0.38419276      -0.22181380      -0.15684604 </v>
    <v>       0.00000000       0.44362759      -0.15684604 </v>
    <v>       0.00000000       0.00000000       0.47053812 </v>
   </varray>
  </crystal>
  <varray name="positions" >
   <v>       0.00000000       0.00000000       0.00000000 </v>
  </varray>
 </structure>
</modeling>
