unknown system                          
           1
     2.602860    0.000000    0.000000
     1.301430    2.254143    0.000000
     1.301430    0.751381    2.125226
   Ag
   1
Direct configuration=     1
   0.00000000  0.00000000  0.00000000
