unknown system                          
   1.00000000000000     
     2.585607    0.000000    0.000000
     1.292803    2.239201    0.000000
     1.292803    0.746400    2.111139
   Pd
     1
Direct
  0.000000  0.000000  0.000000
 
   24   24   24
  76.178      73.387      65.886      55.713      44.885      34.621      25.460      17.766      11.942      8.1750    
  6.1499      5.1465      4.8139      5.1465      6.1499      8.1750      11.942      17.766      25.460      34.621    
  44.885      55.713      65.886      73.387      73.387      68.251      59.482      49.135      38.789      29.255    
  20.953      14.297      9.6276      6.8872      5.5013      4.8494      4.8491      5.5010      6.8875      9.6279    
  14.297      20.953      29.255      38.789      49.135      59.482      68.251      73.387      65.885      59.482    
  50.671      41.090      31.802      23.391      16.323      11.032      7.6665      5.8668      4.9432      4.6381    
  4.9432      5.8668      7.6665      11.032      16.323      23.391      31.802      41.090      50.671      59.482    
  65.885      68.251      55.713      49.135      41.090      32.702      24.713      17.689      12.142      8.3682    
  6.2104      5.0674      4.5149      4.5149      5.0673      6.2103      8.3681      12.142      17.689      24.713    
  32.702      41.090      49.135      55.713      59.482      59.482      44.885      38.789      31.802      24.713    
  18.171      12.753      8.8575      6.4866      5.1864      4.4611      4.2269      4.4611      5.1864      6.4865    
  8.8574      12.753      18.171      24.713      31.802      38.789      44.885      49.135      50.671      49.135    
  34.621      29.255      23.392      17.689      12.753      9.0326      6.6421      5.2706      4.4476      4.0583    
  4.0586      4.4480      5.2704      6.6418      9.0328      12.753      17.689      23.391      29.255      34.621    
  38.789      41.090      41.090      38.789      25.460      20.953      16.323      12.142      8.8574      6.6417    
  5.3005      4.4491      3.9766      3.8282      3.9766      4.4492      5.3006      6.6417      8.8574      12.142    
  16.323      20.953      25.460      29.255      31.802      32.701      31.802      29.255      17.766      14.297    
  11.032      8.3684      6.4867      5.2703      4.4487      3.9532      3.7282      3.7278      3.9528      4.4490    
  5.2707      6.4865      8.3681      11.032      14.297      17.766      20.953      23.392      24.713      24.713    
  23.391      20.953      11.942      9.6278      7.6663      6.2104      5.1867      4.4478      3.9764      3.7280    
  3.6522      3.7280      3.9764      4.4478      5.1867      6.2104      7.6664      9.6278      11.942      14.297    
  16.323      17.689      18.171      17.689      16.323      14.297      8.1751      6.8874      5.8669      5.0673    
  4.4612      4.0585      3.8284      3.7279      3.7281      3.8286      4.0583      4.4609      5.0674      5.8671    
  6.8873      8.1750      9.6279      11.032      12.142      12.753      12.753      12.142      11.032      9.6277    
  6.1496      5.5012      4.9432      4.5149      4.2268      4.0585      3.9766      3.9529      3.9766      4.0584    
  4.2267      4.5149      4.9432      5.5012      6.1497      6.8874      7.6666      8.3683      8.8574      9.0327    
  8.8573      8.3682      7.6665      6.8873      5.1465      4.8492      4.6379      4.5149      4.4611      4.4479    
  4.4489      4.4489      4.4478      4.4610      4.5149      4.6380      4.8492      5.1464      5.5011      5.8670    
  6.2104      6.4866      6.6420      6.6420      6.4866      6.2103      5.8669      5.5012      4.8143      4.8493    
  4.9431      5.0673      5.1865      5.2705      5.3005      5.2705      5.1865      5.0673      4.9431      4.8492    
  4.8142      4.8492      4.9431      5.0673      5.1865      5.2705      5.3005      5.2705      5.1865      5.0673    
  4.9431      4.8493      5.1465      5.5012      5.8669      6.2103      6.4866      6.6420      6.6420      6.4866    
  6.2104      5.8670      5.5011      5.1464      4.8492      4.6380      4.5149      4.4610      4.4478      4.4489    
  4.4489      4.4479      4.4611      4.5149      4.6379      4.8492      6.1496      6.8873      7.6665      8.3682    
  8.8573      9.0327      8.8574      8.3683      7.6666      6.8874      6.1497      5.5012      4.9432      4.5149    
  4.2267      4.0584      3.9766      3.9529      3.9766      4.0585      4.2268      4.5149      4.9432      5.5012    
  8.1751      9.6277      11.032      12.142      12.753      12.753      12.142      11.032      9.6279      8.1750    
  6.8873      5.8671      5.0674      4.4609      4.0583      3.8286      3.7281      3.7279      3.8284      4.0585    
  4.4612      5.0673      5.8669      6.8874      11.942      14.297      16.323      17.689      18.171      17.689    
  16.323      14.297      11.942      9.6278      7.6664      6.2104      5.1867      4.4478      3.9764      3.7280    
  3.6522      3.7280      3.9764      4.4478      5.1867      6.2104      7.6663      9.6278      17.766      20.953    
  23.391      24.713      24.713      23.392      20.953      17.766      14.297      11.032      8.3681      6.4865    
  5.2707      4.4490      3.9528      3.7278      3.7282      3.9532      4.4487      5.2703      6.4867      8.3684    
  11.032      14.297      25.460      29.255      31.802      32.701      31.802      29.255      25.460      20.953    
  16.323      12.142      8.8574      6.6417      5.3006      4.4492      3.9766      3.8282      3.9766      4.4491    
  5.3005      6.6417      8.8574      12.142      16.323      20.953      34.621      38.789      41.090      41.090    
  38.789      34.621      29.255      23.391      17.689      12.753      9.0328      6.6418      5.2704      4.4480    
  4.0586      4.0583      4.4476      5.2706      6.6421      9.0326      12.753      17.689      23.392      29.255    
  44.885      49.135      50.671      49.135      44.885      38.789      31.802      24.713      18.171      12.753    
  8.8574      6.4865      5.1864      4.4611      4.2269      4.4611      5.1864      6.4866      8.8575      12.753    
  18.171      24.713      31.802      38.789      55.713      59.482      59.482      55.713      49.135      41.090    
  32.702      24.713      17.689      12.142      8.3681      6.2103      5.0673      4.5149      4.5149      5.0674    
  6.2104      8.3682      12.142      17.689      24.713      32.702      41.090      49.135      65.885      68.251    
  65.885      59.482      50.671      41.090      31.802      23.391      16.323      11.032      7.6665      5.8668    
  4.9432      4.6381      4.9432      5.8668      7.6665      11.032      16.323      23.391      31.802      41.090    
  50.671      59.482      73.387      73.387      68.251      59.482      49.135      38.789      29.255      20.953    
  14.297      9.6279      6.8875      5.5010      4.8491      4.8494      5.5013      6.8872      9.6276      14.297    
  20.953      29.255      38.789      49.135      59.482      68.251      73.387      68.251      59.482      49.135    
  38.789      29.255      20.953      14.297      9.6276      6.8872      5.5013      4.8494      4.8491      5.5010    
  6.8875      9.6279      14.297      20.953      29.255      38.789      49.135      59.482      68.251      73.387    
  68.251      61.448      52.154      42.150      32.561      23.947      16.723      11.296      7.8218      5.9589    
  5.0132      4.7002      5.0131      5.9589      7.8219      11.296      16.723      23.947      32.561      42.150    
  52.154      61.449      68.251      70.773      59.482      52.154      43.345      34.346      25.921      18.566    
  12.738      8.7296      6.4153      5.2085      4.6276      4.6277      5.2085      6.4151      8.7295      12.738    
  18.567      25.921      34.346      43.345      52.154      59.482      63.725      63.725      49.135      42.150    
  34.346      26.609      19.558      13.710      9.4507      6.8199      5.3960      4.6156      4.3614      4.6156    
  5.3959      6.8198      9.4506      13.710      19.558      26.609      34.346      42.150      49.135      54.102    
  55.917      54.102      38.789      32.561      25.921      19.558      14.052      9.8488      7.1016      5.5408    
  4.6360      4.2020      4.2022      4.6363      5.5406      7.1013      9.8489      14.052      19.558      25.921    
  32.562      38.789      43.749      46.537      46.537      43.749      29.255      23.947      18.567      13.710    
  9.8489      7.2022      5.6199      4.6617      4.1215      3.9504      4.1215      4.6618      5.6199      7.2023    
  9.8489      13.710      18.567      23.947      29.255      33.819      36.942      38.058      36.942      33.818    
  20.953      16.723      12.738      9.4509      7.1017      5.6197      4.6721      4.0904      3.8232      3.8229    
  4.0900      4.6725      5.6201      7.1014      9.4505      12.738      16.723      20.953      24.873      27.915    
  29.583      29.583      27.915      24.874      14.297      11.296      8.7293      6.8199      5.5409      4.6616    
  4.0900      3.7850      3.6913      3.7850      4.0899      4.6615      5.5409      6.8200      8.7294      11.296    
  14.297      17.341      19.970      21.755      22.387      21.755      19.970      17.342      9.6279      7.8219    
  6.4151      5.3959      4.6362      4.1216      3.8229      3.6909      3.6912      3.8232      4.1214      4.6360    
  5.3961      6.4154      7.8218      9.6277      11.658      13.612      15.157      16.009      16.010      15.157    
  13.612      11.658      6.8873      5.9592      5.2086      4.6155      4.2020      3.9507      3.8230      3.7849    
  3.8231      3.9507      4.2021      4.6154      5.2085      5.9592      6.8874      8.0054      9.2000      10.276    
  11.025      11.293      11.025      10.276      9.2000      8.0053      5.5011      5.0132      4.6277      4.3614    
  4.2021      4.1215      4.0902      4.0901      4.1214      4.2021      4.3613      4.6276      5.0132      5.5011    
  6.0496      6.6424      7.2283      7.7070      7.9773      7.9773      7.7070      7.2282      6.6423      6.0495    
  4.8493      4.7000      4.6276      4.6156      4.6362      4.6616      4.6723      4.6615      4.6361      4.6155    
  4.6276      4.7001      4.8493      5.0706      5.3366      5.6043      5.8353      5.9960      6.0540      5.9960    
  5.8352      5.6042      5.3366      5.0707      4.8493      5.0132      5.2084      5.3959      5.5407      5.6200    
  5.6199      5.5407      5.3960      5.2085      5.0131      4.8492      4.7466      4.7154      4.7437      4.8043    
  4.8661      4.9037      4.9037      4.8660      4.8044      4.7437      4.7154      4.7466      5.5012      5.9592    
  6.4152      6.8198      7.1014      7.2025      7.1015      6.8199      6.4153      5.9591      5.5012      5.0706    
  4.7154      4.4616      4.3066      4.2277      4.1960      4.1883      4.1961      4.2278      4.3066      4.4616    
  4.7154      5.0706      6.8874      7.8219      8.7296      9.4507      9.8489      9.8488      9.4506      8.7297    
  7.8220      6.8873      6.0496      5.3367      4.7437      4.3065      4.0240      3.8669      3.7997      3.7997    
  3.8669      4.0242      4.3067      4.7437      5.3366      6.0496      9.6279      11.296      12.738      13.710    
  14.052      13.710      12.738      11.296      9.6280      8.0055      6.6423      5.6043      4.8045      4.2277    
  3.8668      3.6791      3.6221      3.6790      3.8667      4.2277      4.8045      5.6043      6.6422      8.0054    
  14.297      16.723      18.566      19.558      19.558      18.567      16.723      14.297      11.658      9.2002    
  7.2281      5.8351      4.8662      4.1961      3.7995      3.6218      3.6222      3.7999      4.1958      4.8658    
  5.8353      7.2284      9.1999      11.658      20.953      23.948      25.921      26.609      25.921      23.948    
  20.953      17.341      13.612      10.276      7.7070      5.9958      4.9037      4.1886      3.7997      3.6787    
  3.7997      4.1886      4.9037      5.9957      7.7069      10.276      13.612      17.341      29.255      32.561    
  34.346      34.346      32.561      29.255      24.874      19.970      15.157      11.025      7.9774      6.0539    
  4.9035      4.1963      3.8671      3.8667      4.1958      4.9038      6.0543      7.9771      11.025      15.157    
  19.970      24.873      38.789      42.150      43.345      42.150      38.789      33.818      27.915      21.755    
  16.009      11.293      7.9774      5.9960      4.8659      4.2278      4.0243      4.2277      4.8658      5.9959    
  7.9775      11.293      16.009      21.755      27.915      33.818      49.135      52.154      52.154      49.135    
  43.749      36.942      29.583      22.387      16.009      11.025      7.7070      5.8352      4.8043      4.3065    
  4.3067      4.8045      5.8351      7.7068      11.025      16.010      22.387      29.583      36.942      43.749    
  59.482      61.449      59.482      54.102      46.537      38.058      29.583      21.755      15.157      10.276    
  7.2282      5.6042      4.7437      4.4616      4.7437      5.6042      7.2282      10.276      15.157      21.755    
  29.583      38.058      46.537      54.102      68.251      68.251      63.725      55.916      46.537      36.942    
  27.915      19.970      13.612      9.2001      6.6424      5.3366      4.7153      4.7155      5.3367      6.6423    
  9.2000      13.613      19.970      27.915      36.942      46.537      55.917      63.725      73.387      70.773    
  63.725      54.102      43.749      33.818      24.874      17.342      11.658      8.0054      6.0498      5.0707    
  4.7464      5.0707      6.0498      8.0054      11.658      17.342      24.874      33.818      43.749      54.102    
  63.725      70.773      65.885      59.482      50.671      41.090      31.802      23.391      16.323      11.032    
  7.6665      5.8668      4.9432      4.6381      4.9432      5.8668      7.6665      11.032      16.323      23.391    
  31.802      41.090      50.671      59.482      65.885      68.251      59.482      52.154      43.345      34.346    
  25.921      18.566      12.738      8.7296      6.4153      5.2085      4.6276      4.6277      5.2085      6.4151    
  8.7295      12.738      18.567      25.921      34.346      43.345      52.154      59.482      63.725      63.725    
  50.671      43.345      35.232      27.260      20.033      14.041      9.6592      6.9380      5.4687      4.6697    
  4.4086      4.6697      5.4687      6.9380      9.6592      14.041      20.033      27.260      35.232      43.345    
  50.671      55.917      57.839      55.917      41.090      34.346      27.260      20.541      14.742      10.291    
  7.3538      5.6848      4.7368      4.2791      4.2793      4.7369      5.6846      7.3535      10.291      14.742    
  20.541      27.260      34.346      41.090      46.537      49.627      49.627      46.537      31.802      25.921    
  20.033      14.742      10.514      7.5838      5.8300      4.8004      4.2164      4.0304      4.2164      4.8004    
  5.8300      7.5838      10.514      14.742      20.033      25.921      31.802      36.942      40.511      41.796    
  40.511      36.942      23.392      18.566      14.041      10.291      7.5841      5.8812      4.8374      4.1931    
  3.8945      3.8941      4.1927      4.8378      5.8817      7.5838      10.290      14.041      18.567      23.391    
  27.915      31.472      33.445      33.444      31.472      27.915      16.323      12.738      9.6590      7.3538    
  5.8302      4.8375      4.1873      3.8367      3.7283      3.8367      4.1874      4.8376      5.8302      7.3538    
  9.6590      12.738      16.323      19.970      23.144      25.319      26.095      25.319      23.144      19.970    
  11.032      8.7296      6.9379      5.6846      4.8004      4.1930      3.8365      3.6777      3.6780      3.8368    
  4.1927      4.8000      5.6849      6.9383      8.7295      11.032      13.612      16.099      18.072      19.166    
  19.166      18.072      16.099      13.612      7.6665      6.4153      5.4687      4.7367      4.2164      3.8944    
  3.7281      3.6778      3.7281      3.8944      4.2164      4.7367      5.4687      6.4154      7.6666      9.2000    
  10.841      12.318      13.348      13.718      13.348      12.318      10.841      9.2000      5.8669      5.2086    
  4.6697      4.2791      4.0306      3.8943      3.8367      3.8366      3.8942      4.0307      4.2792      4.6696    
  5.2084      5.8669      6.6424      7.5264      8.4134      9.1409      9.5521      9.5520      9.1408      8.4133    
  7.5264      6.6423      4.9432      4.6277      4.4086      4.2792      4.2164      4.1929      4.1876      4.1929    
  4.2164      4.2792      4.4085      4.6276      4.9432      5.3366      5.7653      6.1960      6.5855      6.8619    
  6.9623      6.8619      6.5854      6.1960      5.7653      5.3366      4.6380      4.6276      4.6696      4.7369    
  4.8003      4.8376      4.8375      4.8001      4.7369      4.6697      4.6276      4.6379      4.7154      4.8546    
  5.0301      5.2055      5.3443      5.4208      5.4207      5.3442      5.2055      5.0303      4.8545      4.7154    
  4.9432      5.2085      5.4687      5.6846      5.8300      5.8816      5.8300      5.6847      5.4687      5.2085    
  4.9432      4.7154      4.5546      4.4686      4.4438      4.4547      4.4744      4.4834      4.4745      4.4548    
  4.4438      4.4686      4.5547      4.7154      5.8669      6.4152      6.9380      7.3536      7.5839      7.5840    
  7.3538      6.9382      6.4152      5.8669      5.3366      4.8546      4.4685      4.1976      4.0322      3.9460    
  3.9114      3.9114      3.9460      4.0322      4.1977      4.4685      4.8546      5.3367      7.6666      8.7296    
  9.6592      10.291      10.514      10.291      9.6592      8.7297      7.6666      6.6424      5.7653      5.0302    
  4.4439      4.0322      3.7796      3.6501      3.6113      3.6502      3.7796      4.0322      4.4439      5.0302    
  5.7652      6.6423      11.032      12.738      14.041      14.742      14.742      14.041      12.738      11.032    
  9.2002      7.5266      6.1959      5.2054      4.4549      3.9461      3.6500      3.5187      3.5190      3.6503    
  3.9459      4.4547      5.2056      6.1961      7.5262      9.1999      16.323      18.567      20.033      20.541    
  20.033      18.567      16.323      13.612      10.841      8.4137      6.5855      5.3441      4.4744      3.9116    
  3.6112      3.5186      3.6112      3.9116      4.4744      5.3440      6.5854      8.4136      10.841      13.612    
  23.391      25.921      27.260      27.260      25.921      23.392      19.970      16.099      12.318      9.1411    
  6.8621      5.4205      4.4831      3.9116      3.6504      3.6500      3.9112      4.4835      5.4209      6.8617    
  9.1407      12.318      16.099      19.970      31.802      34.346      35.232      34.346      31.802      27.915    
  23.145      18.072      13.348      9.5520      6.9625      5.4207      4.4742      3.9460      3.7799      3.9460    
  4.4742      5.4207      6.9626      9.5521      13.348      18.072      23.145      27.915      41.090      43.345    
  43.345      41.090      36.942      31.472      25.319      19.166      13.718      9.5519      6.8620      5.3444    
  4.4547      4.0321      4.0324      4.4549      5.3441      6.8617      9.5522      13.719      19.166      25.319    
  31.472      36.942      50.671      52.154      50.671      46.537      40.511      33.445      26.094      19.166    
  13.348      9.1407      6.5854      5.2056      4.4438      4.1976      4.4438      5.2056      6.5854      9.1408    
  13.349      19.166      26.094      33.445      40.511      46.537      59.482      59.482      55.917      49.627    
  41.796      33.445      25.319      18.072      12.318      8.4133      6.1960      5.0302      4.4686      4.4686    
  5.0302      6.1960      8.4134      12.318      18.072      25.319      33.445      41.796      49.627      55.917    
  65.885      63.725      57.839      49.627      40.511      31.472      23.145      16.099      10.841      7.5264    
  5.7654      4.8546      4.5546      4.8546      5.7654      7.5264      10.841      16.099      23.145      31.472    
  40.511      49.627      57.839      63.725      68.251      63.725      55.917      46.537      36.942      27.915    
  19.970      13.613      9.2000      6.6423      5.3367      4.7155      4.7153      5.3366      6.6424      9.2001    
  13.612      19.970      27.915      36.942      46.537      55.916      63.725      68.251      55.713      49.135    
  41.090      32.702      24.713      17.689      12.142      8.3682      6.2104      5.0674      4.5149      4.5149    
  5.0673      6.2103      8.3681      12.142      17.689      24.713      32.702      41.090      49.135      55.713    
  59.482      59.482      49.135      42.150      34.346      26.609      19.558      13.710      9.4507      6.8199    
  5.3960      4.6156      4.3614      4.6156      5.3959      6.8198      9.4506      13.710      19.558      26.609    
  34.346      42.150      49.135      54.102      55.917      54.102      41.090      34.346      27.260      20.541    
  14.742      10.291      7.3538      5.6848      4.7368      4.2791      4.2793      4.7369      5.6846      7.3535    
  10.291      14.742      20.541      27.260      34.346      41.090      46.537      49.627      49.627      46.537    
  32.701      26.609      20.541      15.100      10.747      7.7190      5.9036      4.8484      4.2494      4.0583    
  4.2495      4.8484      5.9036      7.7189      10.746      15.100      20.541      26.609      32.701      38.058    
  41.796      43.146      41.796      38.058      24.713      19.558      14.741      10.747      7.8489      6.0228    
  4.9248      4.2478      3.9324      3.9321      4.2474      4.9251      6.0231      7.8486      10.746      14.742    
  19.558      24.713      29.583      33.445      35.599      35.599      33.445      29.583      17.690      13.710    
  10.290      7.7191      6.0231      4.9519      4.2523      3.8721      3.7541      3.8720      4.2523      4.9520    
  6.0232      7.7191      10.290      13.710      17.689      21.755      25.319      27.778      28.659      27.778    
  25.319      21.755      12.142      9.4508      7.3536      5.9035      4.9250      4.2526      3.8547      3.6766    
  3.6769      3.8550      4.2524      4.9248      5.9038      7.3539      9.4505      12.142      15.157      18.072    
  20.397      21.692      21.692      20.397      18.072      15.157      8.3682      6.8201      5.6847      4.8481    
  4.2476      3.8722      3.6767      3.6173      3.6767      3.8722      4.2476      4.8481      5.6848      6.8201    
  8.3682      10.276      12.318      14.161      15.451      15.914      15.451      14.162      12.318      10.276    
  6.2103      5.3961      4.7369      4.2494      3.9322      3.7540      3.6768      3.6766      3.7538      3.9323    
  4.2495      4.7368      5.3959      6.2104      7.2283      8.4134      9.6092      10.592      11.149      11.149    
  10.592      9.6093      8.4135      7.2282      5.0674      4.6156      4.2792      4.0584      3.9322      3.8721    
  3.8549      3.8721      3.9322      4.0584      4.2792      4.6156      5.0673      5.6042      6.1960      6.8233    
  7.4028      7.8174      7.9682      7.8172      7.4026      6.8232      6.1960      5.6043      4.5149      4.3614    
  4.2792      4.2495      4.2476      4.2525      4.2525      4.2476      4.2495      4.2792      4.3613      4.5149    
  4.7437      5.0302      5.3371      5.6204      5.8454      5.9721      5.9720      5.8452      5.6204      5.3371    
  5.0301      4.7437      4.5149      4.6156      4.7369      4.8482      4.9249      4.9521      4.9249      4.8482    
  4.7368      4.6156      4.5149      4.4615      4.4686      4.5299      4.6231      4.7183      4.7878      4.8131    
  4.7878      4.7184      4.6232      4.5299      4.4686      4.4615      5.0673      5.3960      5.6847      5.9036    
  6.0229      6.0230      5.9037      5.6847      5.3960      5.0673      4.7437      4.4685      4.2678      4.1447    
  4.0841      4.0626      4.0582      4.0582      4.0626      4.0841      4.1447      4.2679      4.4686      4.7437    
  6.2103      6.8198      7.3536      7.7190      7.8488      7.7191      7.3538      6.8199      6.2103      5.6042    
  5.0301      4.5298      4.1447      3.8825      3.7261      3.6479      3.6248      3.6479      3.7261      3.8825    
  4.1447      4.5299      5.0302      5.6042      8.3682      9.4507      10.290      10.746      10.747      10.291    
  9.4506      8.3682      7.2283      6.1961      5.3370      4.6231      4.0842      3.7262      3.5203      3.4297    
  3.4298      3.5205      3.7261      4.0840      4.6232      5.3371      6.1959      7.2281      12.142      13.710    
  14.742      15.100      14.742      13.710      12.142      10.276      8.4135      6.8235      5.6205      4.7182    
  4.0626      3.6481      3.4297      3.3628      3.4297      3.6481      4.0626      4.7182      5.6204      6.8234    
  8.4133      10.275      17.689      19.558      20.541      20.541      19.558      17.689      15.157      12.318    
  9.6091      7.4030      5.8455      4.7876      4.0580      3.6249      3.4299      3.4296      3.6246      4.0583    
  4.7880      5.8452      7.4026      9.6094      12.318      15.157      24.713      26.609      27.260      26.609    
  24.713      21.755      18.072      14.161      10.592      7.8174      5.9723      4.8131      4.0579      3.6479    
  3.5207      3.6479      4.0579      4.8130      5.9722      7.8174      10.592      14.161      18.072      21.755    
  32.701      34.346      34.346      32.702      29.583      25.319      20.397      15.451      11.149      7.9680    
  5.9722      4.7880      4.0624      3.7259      3.7263      4.0628      4.7876      5.9718      7.9684      11.149    
  15.450      20.397      25.319      29.583      41.090      42.150      41.090      38.058      33.445      27.778    
  21.692      15.915      11.149      7.8170      5.8453      4.7186      4.0842      3.8823      4.0841      4.7186    
  5.8453      7.8172      11.149      15.915      21.692      27.778      33.445      38.058      49.135      49.135    
  46.537      41.796      35.599      28.659      21.692      15.451      10.592      7.4025      5.6203      4.6233    
  4.1448      4.1446      4.6230      5.6205      7.4028      10.592      15.451      21.692      28.659      35.599    
  41.796      46.537      55.713      54.102      49.627      43.146      35.599      27.778      20.397      14.161    
  9.6092      6.8232      5.3370      4.5299      4.2679      4.5299      5.3370      6.8232      9.6092      14.161    
  20.397      27.778      35.599      43.146      49.627      54.102      59.482      55.917      49.627      41.796    
  33.445      25.319      18.072      12.318      8.4134      6.1960      5.0302      4.4686      4.4686      5.0302    
  6.1960      8.4133      12.318      18.072      25.319      33.445      41.796      49.627      55.917      59.482    
  59.482      54.102      46.537      38.058      29.583      21.755      15.157      10.276      7.2282      5.6042    
  4.7437      4.4616      4.7437      5.6042      7.2282      10.276      15.157      21.755      29.583      38.058    
  46.537      54.102      59.482      61.449      44.885      38.789      31.802      24.713      18.171      12.753    
  8.8575      6.4866      5.1864      4.4611      4.2269      4.4611      5.1864      6.4865      8.8574      12.753    
  18.171      24.713      31.802      38.789      44.885      49.135      50.671      49.135      38.789      32.561    
  25.921      19.558      14.052      9.8488      7.1016      5.5408      4.6360      4.2020      4.2022      4.6363    
  5.5406      7.1013      9.8489      14.052      19.558      25.921      32.562      38.789      43.749      46.537    
  46.537      43.749      31.802      25.921      20.033      14.742      10.514      7.5838      5.8300      4.8004    
  4.2164      4.0304      4.2164      4.8004      5.8300      7.5838      10.514      14.742      20.033      25.921    
  31.802      36.942      40.511      41.796      40.511      36.942      24.713      19.558      14.741      10.747    
  7.8489      6.0228      4.9248      4.2478      3.9324      3.9321      4.2474      4.9251      6.0231      7.8486    
  10.746      14.742      19.558      24.713      29.583      33.445      35.599      35.599      33.445      29.583    
  18.171      14.052      10.513      7.8488      6.0912      4.9915      4.2750      3.8846      3.7633      3.8846    
  4.2750      4.9915      6.0912      7.8488      10.513      14.052      18.171      22.387      26.094      28.659    
  29.578      28.659      26.094      22.387      12.753      9.8490      7.5838      6.0227      4.9917      4.2861    
  3.8666      3.6783      3.6786      3.8669      4.2858      4.9914      6.0231      7.5842      9.8487      12.753    
  16.009      19.166      21.692      23.103      23.103      21.692      19.166      16.009      8.8574      7.1017    