unknown system                          
   1.00000000000000     
     2.585607    0.000000    0.000000
     1.292803    2.239201    0.000000
     1.292803    0.746400    2.111139
   Pd
     1
Direct
  0.000000  0.000000  0.000000
 
   24   24   24
 0.76178146407E+02 0.73386866820E+02 0.65885550503E+02 0.55713389319E+02 0.44884610138E+02
 0.34620991012E+02 0.25459807310E+02 0.17766294075E+02 0.11941976880E+02 0.81750004589E+01
 0.61499254693E+01 0.51464959294E+01 0.48139363869E+01 0.51464959294E+01 0.61499254693E+01
 0.81750004589E+01 0.11941976880E+02 0.17766294075E+02 0.25459807310E+02 0.34620991012E+02
 0.44884610138E+02 0.55713389319E+02 0.65885550503E+02 0.73386866820E+02 0.73386678297E+02
 0.68250724938E+02 0.59482322483E+02 0.49135031641E+02 0.38788933253E+02 0.29254788830E+02
 0.20953238175E+02 0.14297349627E+02 0.96275928589E+01 0.68871611842E+01 0.55013359961E+01
 0.48493955425E+01 0.48490677409E+01 0.55010322452E+01 0.68875420391E+01 0.96279495203E+01
 0.14297013742E+02 0.20952914506E+02 0.29255113144E+02 0.38789170573E+02 0.49134598358E+02
 0.59482075951E+02 0.68251319001E+02 0.73387160530E+02 0.65885247798E+02 0.59481965371E+02
 0.50671199558E+02 0.41089973678E+02 0.31802112176E+02 0.23391219101E+02 0.16323099725E+02
 0.11032103004E+02 0.76665223986E+01 0.58667993987E+01 0.49431965610E+01 0.46381009209E+01
 0.49431847436E+01 0.58667799665E+01 0.76665025820E+01 0.11032090612E+02 0.16323100935E+02
 0.23391236627E+02 0.31802144933E+02 0.41090015365E+02 0.50671242644E+02 0.59482000395E+02
 0.65885267238E+02 0.68251299067E+02 0.55713414708E+02 0.49134817730E+02 0.41089779701E+02
 0.32701502225E+02 0.24713323812E+02 0.17689307585E+02 0.12141728399E+02 0.83682302389E+01
 0.62103792467E+01 0.50673600520E+01 0.45149045737E+01 0.45149202757E+01 0.50673303005E+01
 0.62102577094E+01 0.83681480882E+01 0.12141762946E+02 0.17689341482E+02 0.24713315355E+02
 0.32701604870E+02 0.41089997275E+02 0.49134876799E+02 0.55713214320E+02 0.59482143595E+02
 0.59482289862E+02 0.44884816600E+02 0.38789121776E+02 0.31802208418E+02 0.24713298423E+02
 0.18171087069E+02 0.12753281556E+02 0.88574532192E+01 0.64865573911E+01 0.51863768930E+01
 0.44610837733E+01 0.42268893391E+01 0.44610912473E+01 0.51863811686E+01 0.64865452796E+01
 0.88574209927E+01 0.12753240870E+02 0.18171062860E+02 0.24713314739E+02 0.31802274372E+02
 0.38789224023E+02 0.44884919812E+02 0.49134851411E+02 0.50671338886E+02 0.49134786881E+02
 0.34620852528E+02 0.29254838869E+02 0.23391526174E+02 0.17689471458E+02 0.12753143071E+02
 0.90326386022E+01 0.66420923985E+01 0.52705604576E+01 0.44476116101E+01 0.40582539471E+01
 0.40585881636E+01 0.44480129312E+01 0.52703715390E+01 0.66418043025E+01 0.90328476937E+01
 0.12753373388E+02 0.17689172251E+02 0.23391211949E+02 0.29255114364E+02 0.34621270754E+02
 0.38789085538E+02 0.41089833402E+02 0.41089985260E+02 0.38789120534E+02 0.25459504606E+02
 0.20952806509E+02 0.16323099725E+02 0.12141996930E+02 0.88573569767E+01 0.66417107715E+01
 0.53005387118E+01 0.44491005482E+01 0.39765567134E+01 0.38282027863E+01 0.39765914843E+01
 0.44491529857E+01 0.53005851209E+01 0.66417325215E+01 0.88573535211E+01 0.12141981732E+02
 0.16323094924E+02 0.20952827737E+02 0.25459549589E+02 0.29255219023E+02 0.31802178130E+02
 0.32701387116E+02 0.31802144933E+02 0.29255167764E+02 0.17766460052E+02 0.14296995128E+02
 0.11031768439E+02 0.83683708267E+01 0.64867233675E+01 0.52702559970E+01 0.44486914291E+01
 0.39531926384E+01 0.37281604558E+01 0.37277600715E+01 0.39527561354E+01 0.44490304477E+01
 0.52706940265E+01 0.64864731167E+01 0.83680582164E+01 0.11032118988E+02 0.14297371027E+02
 0.17766150611E+02 0.20952904903E+02 0.23391516409E+02 0.24713480716E+02 0.24713174768E+02
 0.23391239240E+02 0.20953269005E+02 0.11942461703E+02 0.96277813817E+01 0.76663402797E+01
 0.62103538581E+01 0.51866552544E+01 0.44477500944E+01 0.39763745945E+01 0.37279944794E+01
 0.36521586885E+01 0.37279944626E+01 0.39763792062E+01 0.44477641637E+01 0.51866828767E+01
 0.62103910037E+01 0.76663791428E+01 0.96278139354E+01 0.11942479210E+02 0.14297205051E+02
 0.16322912805E+02 0.17689310736E+02 0.18171341221E+02 0.17689316093E+02 0.16322918816E+02
 0.14297202264E+02 0.81750756542E+01 0.68874249024E+01 0.58668927920E+01 0.50673102453E+01
 0.44611589686E+01 0.40584676267E+01 0.38283707337E+01 0.37278508525E+01 0.37280696579E+01
 0.38286293901E+01 0.40583226380E+01 0.44609160884E+01 0.50673911085E+01 0.58670566091E+01
 0.68873309415E+01 0.81749857268E+01 0.96278891307E+01 0.11032028207E+02 0.12141663394E+02
 0.12753159708E+02 0.12753316065E+02 0.12141812752E+02 0.11031846828E+02 0.96276858021E+01
 0.61496227650E+01 0.55011785751E+01 0.49431965610E+01 0.45148988604E+01 0.42267930966E+01
 0.40584807812E+01 0.39765914843E+01 0.39528910098E+01 0.39765613251E+01 0.40584289352E+01
 0.42267342568E+01 0.45148501898E+01 0.49431698580E+01 0.55011844213E+01 0.61496571410E+01
 0.68873750349E+01 0.76665612617E+01 0.83682552947E+01 0.88573535211E+01 0.90326781074E+01
 0.88573247502E+01 0.83682045787E+01 0.76665025820E+01 0.68873224143E+01 0.51465122537E+01
 0.48491906953E+01 0.46379160079E+01 0.45149112114E+01 0.44611075716E+01 0.44478581225E+01
 0.44488935187E+01 0.44488807957E+01 0.44477804880E+01 0.44609749593E+01 0.45148649674E+01
 0.46380024008E+01 0.48492355655E+01 0.51464062014E+01 0.55011369950E+01 0.58669977381E+01
 0.62104073281E+01 0.64866227687E+01 0.66419593398E+01 0.66419591111E+01 0.64865616040E+01
 0.62102667736E+01 0.58669322308E+01 0.55012370925E+01 0.48142817977E+01 0.48492562638E+01
 0.49431420371E+01 0.50673049119E+01 0.51865201175E+01 0.52705100233E+01 0.53005424145E+01
 0.52705280501E+01 0.51865434643E+01 0.50673159132E+01 0.49431271516E+01 0.48492192412E+01
 0.48142365952E+01 0.48492192412E+01 0.49431271516E+01 0.50673159132E+01 0.51865434643E+01
 0.52705280501E+01 0.53005424145E+01 0.52705100233E+01 0.51865201175E+01 0.50673049119E+01
 0.49431420371E+01 0.48492562638E+01 0.51465122537E+01 0.55012370925E+01 0.58669322308E+01
 0.62102667736E+01 0.64865616040E+01 0.66419591111E+01 0.66419593398E+01 0.64866227687E+01
 0.62104073281E+01 0.58669977381E+01 0.55011369950E+01 0.51464062014E+01 0.48492355655E+01
 0.46380024008E+01 0.45148649674E+01 0.44609749593E+01 0.44477804880E+01 0.44488807957E+01
 0.44488935187E+01 0.44478581225E+01 0.44611075716E+01 0.45149112114E+01 0.46379160079E+01
 0.48491906953E+01 0.61496227650E+01 0.68873224143E+01 0.76665025820E+01 0.83682045787E+01
 0.88573247502E+01 0.90326781074E+01 0.88573535211E+01 0.83682552947E+01 0.76665612617E+01
 0.68873750349E+01 0.61496571410E+01 0.55011844213E+01 0.49431698580E+01 0.45148501898E+01
 0.42267342568E+01 0.40584289352E+01 0.39765613251E+01 0.39528910098E+01 0.39765914843E+01
 0.40584807812E+01 0.42267930966E+01 0.45148988604E+01 0.49431965610E+01 0.55011785751E+01
 0.81750756542E+01 0.96276858021E+01 0.11031846828E+02 0.12141812752E+02 0.12753316065E+02
 0.12753159708E+02 0.12141663394E+02 0.11032028207E+02 0.96278891307E+01 0.81749857268E+01
 0.68873309415E+01 0.58670566091E+01 0.50673911085E+01 0.44609160884E+01 0.40583226380E+01
 0.38286293901E+01 0.37280696579E+01 0.37278508525E+01 0.38283707337E+01 0.40584676267E+01
 0.44611589686E+01 0.50673102453E+01 0.58668927920E+01 0.68874249024E+01 0.11942461703E+02
 0.14297202264E+02 0.16322918816E+02 0.17689316093E+02 0.18171341221E+02 0.17689310736E+02
 0.16322912805E+02 0.14297205051E+02 0.11942479210E+02 0.96278139354E+01 0.76663791428E+01
 0.62103910037E+01 0.51866828767E+01 0.44477641637E+01 0.39763792062E+01 0.37279944626E+01
 0.36521586885E+01 0.37279944794E+01 0.39763745945E+01 0.44477500944E+01 0.51866552544E+01
 0.62103538581E+01 0.76663402797E+01 0.96277813817E+01 0.17766460052E+02 0.20953269005E+02
 0.23391239240E+02 0.24713174768E+02 0.24713480716E+02 0.23391516409E+02 0.20952904903E+02
 0.17766150611E+02 0.14297371027E+02 0.11032118988E+02 0.83680582164E+01 0.64864731167E+01
 0.52706940265E+01 0.44490304477E+01 0.39527561354E+01 0.37277600715E+01 0.37281604558E+01
 0.39531926384E+01 0.44486914291E+01 0.52702559970E+01 0.64867233675E+01 0.83683708267E+01
 0.11031768439E+02 0.14296995128E+02 0.25459504606E+02 0.29255167764E+02 0.31802144933E+02
 0.32701387116E+02 0.31802178130E+02 0.29255219023E+02 0.25459549589E+02 0.20952827737E+02
 0.16323094924E+02 0.12141981732E+02 0.88573535211E+01 0.66417325215E+01 0.53005851209E+01
 0.44491529857E+01 0.39765914843E+01 0.38282027863E+01 0.39765567134E+01 0.44491005482E+01
 0.53005387118E+01 0.66417107715E+01 0.88573569767E+01 0.12141996930E+02 0.16323099725E+02
 0.20952806509E+02 0.34620852528E+02 0.38789120534E+02 0.41089985260E+02 0.41089833402E+02
 0.38789085538E+02 0.34621270754E+02 0.29255114364E+02 0.23391211949E+02 0.17689172251E+02
 0.12753373388E+02 0.90328476937E+01 0.66418043025E+01 0.52703715390E+01 0.44480129312E+01
 0.40585881636E+01 0.40582539471E+01 0.44476116101E+01 0.52705604576E+01 0.66420923985E+01
 0.90326386022E+01 0.12753143071E+02 0.17689471458E+02 0.23391526174E+02 0.29254838869E+02
 0.44884816600E+02 0.49134786881E+02 0.50671338886E+02 0.49134851411E+02 0.44884919812E+02
 0.38789224023E+02 0.31802274372E+02 0.24713314739E+02 0.18171062860E+02 0.12753240870E+02
 0.88574209927E+01 0.64865452796E+01 0.51863811686E+01 0.44610912473E+01 0.42268893391E+01
 0.44610837733E+01 0.51863768930E+01 0.64865573911E+01 0.88574532192E+01 0.12753281556E+02
 0.18171087069E+02 0.24713298423E+02 0.31802208418E+02 0.38789121776E+02 0.55713414708E+02
 0.59482289862E+02 0.59482143595E+02 0.55713214320E+02 0.49134876799E+02 0.41089997275E+02
 0.32701604870E+02 0.24713315355E+02 0.17689341482E+02 0.12141762946E+02 0.83681480882E+01
 0.62102577094E+01 0.50673303005E+01 0.45149202757E+01 0.45149045737E+01 0.50673600520E+01
 0.62103792467E+01 0.83682302389E+01 0.12141728399E+02 0.17689307585E+02 0.24713323812E+02
 0.32701502225E+02 0.41089779701E+02 0.49134817730E+02 0.65885247798E+02 0.68251299067E+02
 0.65885267238E+02 0.59482000395E+02 0.50671242644E+02 0.41090015365E+02 0.31802144933E+02
 0.23391236627E+02 0.16323100935E+02 0.11032090612E+02 0.76665025820E+01 0.58667799665E+01
 0.49431847436E+01 0.46381009209E+01 0.49431965610E+01 0.58667993987E+01 0.76665223986E+01
 0.11032103004E+02 0.16323099725E+02 0.23391219101E+02 0.31802112176E+02 0.41089973678E+02
 0.50671199558E+02 0.59481965371E+02 0.73386678297E+02 0.73387160530E+02 0.68251319001E+02
 0.59482075951E+02 0.49134598358E+02 0.38789170573E+02 0.29255113144E+02 0.20952914506E+02
 0.14297013742E+02 0.96279495203E+01 0.68875420391E+01 0.55010322452E+01 0.48490677409E+01
 0.48493955425E+01 0.55013359961E+01 0.68871611842E+01 0.96275928589E+01 0.14297349627E+02
 0.20953238175E+02 0.29254788830E+02 0.38788933253E+02 0.49135031641E+02 0.59482322483E+02
 0.68250724938E+02 0.73386678297E+02 0.68250724938E+02 0.59482322483E+02 0.49135031641E+02
 0.38788933253E+02 0.29254788830E+02 0.20953238175E+02 0.14297349627E+02 0.96275928589E+01
 0.68871611842E+01 0.55013359961E+01 0.48493955425E+01 0.48490677409E+01 0.55010322452E+01
 0.68875420391E+01 0.96279495203E+01 0.14297013742E+02 0.20952914506E+02 0.29255113144E+02
 0.38789170573E+02 0.49134598358E+02 0.59482075951E+02 0.68251319001E+02 0.73387160530E+02
 0.68250881246E+02 0.61448462490E+02 0.52153977703E+02 0.42150402762E+02 0.32561467830E+02
 0.23947296048E+02 0.16722986042E+02 0.11296068411E+02 0.78217954258E+01 0.59589498217E+01
 0.50132294711E+01 0.47002161802E+01 0.50131398281E+01 0.59589408019E+01 0.78219363269E+01
 0.11296222270E+02 0.16722998500E+02 0.23947160358E+02 0.32561286071E+02 0.42150309110E+02
 0.52154094549E+02 0.61448776936E+02 0.68251167850E+02 0.70773020807E+02 0.59482201734E+02
 0.52153879785E+02 0.43344556270E+02 0.34345771077E+02 0.25920773427E+02 0.18566497457E+02
 0.12737671158E+02 0.87295822501E+01 0.64152779129E+01 0.52084918203E+01 0.46275925388E+01
 0.46276796488E+01 0.52085368543E+01 0.64151236901E+01 0.87295401448E+01 0.12737900848E+02
 0.18566592987E+02 0.25920513403E+02 0.34345620170E+02 0.43344848932E+02 0.52154194575E+02
 0.59482135121E+02 0.63724968235E+02 0.63725101974E+02 0.49134844592E+02 0.42150190954E+02
 0.34345701793E+02 0.26609097511E+02 0.19557943615E+02 0.13709771898E+02 0.94507026879E+01
 0.68199131752E+01 0.53959884388E+01 0.46155611899E+01 0.43613633392E+01 0.46155909034E+01
 0.53959456409E+01 0.68197960986E+01 0.94506344743E+01 0.13709811166E+02 0.19558028781E+02
 0.26609186907E+02 0.34345810500E+02 0.42150278730E+02 0.49134840699E+02 0.54101999498E+02
 0.55916567940E+02 0.54102056980E+02 0.38789029261E+02 0.32561389635E+02 0.25920796697E+02
 0.19558053409E+02 0.14051872563E+02 0.98487690878E+01 0.71015754081E+01 0.55407733298E+01
 0.46360374460E+01 0.42019551642E+01 0.42021871573E+01 0.46362865106E+01 0.55405585096E+01
 0.71012961772E+01 0.98489202154E+01 0.14052121521E+02 0.19557940322E+02 0.25920621930E+02
 0.32561577340E+02 0.38789292688E+02 0.43749429618E+02 0.46536827790E+02 0.46536946285E+02
 0.43749483579E+02 0.29254961751E+02 0.23947295336E+02 0.18566583580E+02 0.13709993508E+02
 0.98488700240E+01 0.72022121809E+01 0.56198712662E+01 0.46617482861E+01 0.41214570581E+01
 0.39504043655E+01 0.41214883610E+01 0.46617999500E+01 0.56199275688E+01 0.72022505181E+01
 0.98488628976E+01 0.13709936873E+02 0.18566523336E+02 0.23947294884E+02 0.29255042085E+02
 0.33818596427E+02 0.36942137680E+02 0.38058008666E+02 0.36942055350E+02 0.33818479938E+02
 0.20953227990E+02 0.16722813133E+02 0.12737572812E+02 0.94508612098E+01 0.71016679493E+01
 0.56197146797E+01 0.46721188626E+01 0.40903576670E+01 0.38232164061E+01 0.38228574976E+01
 0.40899971108E+01 0.46724904507E+01 0.56201221093E+01 0.71013637435E+01 0.94505115191E+01
 0.12737924103E+02 0.16723227418E+02 0.20952949280E+02 0.24873321526E+02 0.27914784791E+02
 0.29583367692E+02 0.29583109535E+02 0.27914594955E+02 0.24873720259E+02 0.14297403292E+02
 0.11295881930E+02 0.87292894668E+01 0.68199047328E+01 0.55409051490E+01 0.46615552974E+01
 0.40899784778E+01 0.37850116880E+01 0.36912672961E+01 0.37849737853E+01 0.40899325854E+01
 0.46615261115E+01 0.55409094091E+01 0.68199675009E+01 0.87294250428E+01 0.11296032481E+02
 0.14297456923E+02 0.17341448797E+02 0.19969815724E+02 0.21754639332E+02 0.22387437931E+02
 0.21754799479E+02 0.19970021016E+02 0.17341554879E+02 0.96278868273E+01 0.78219376684E+01
 0.64151181117E+01 0.53958931231E+01 0.46362354061E+01 0.41215765517E+01 0.38229422069E+01
 0.36909316545E+01 0.36911609488E+01 0.38231782415E+01 0.41213515614E+01 0.46359784023E+01
 0.53960924839E+01 0.64153937359E+01 0.78218314823E+01 0.96277411626E+01 0.11657908202E+02
 0.13612373608E+02 0.15156705864E+02 0.16009276672E+02 0.16009504377E+02 0.15156966211E+02
 0.13612220163E+02 0.11657710604E+02 0.68873227493E+01 0.59592387186E+01 0.52085950022E+01
 0.46155014515E+01 0.42020478235E+01 0.39506939742E+01 0.38230303786E+01 0.37848852928E+01
 0.38230505455E+01 0.39507486887E+01 0.42020818977E+01 0.46154358874E+01 0.52084771298E+01
 0.59592026684E+01 0.68874000192E+01 0.80053796147E+01 0.92000341521E+01 0.10275717532E+02
 0.11024720295E+02 0.11293135235E+02 0.11024685655E+02 0.10275679210E+02 0.91999782736E+01
 0.80052805579E+01 0.55011444406E+01 0.50132199380E+01 0.46276720059E+01 0.43613574758E+01
 0.42021030099E+01 0.41214978433E+01 0.40901749237E+01 0.40901461216E+01 0.41214478812E+01
 0.42020743599E+01 0.43613303365E+01 0.46276106475E+01 0.50131552305E+01 0.55011445282E+01
 0.60495924875E+01 0.66424121566E+01 0.72282511288E+01 0.77069957398E+01 0.79772620367E+01
 0.79772517336E+01 0.77069632173E+01 0.72281903413E+01 0.66423265153E+01 0.60495223283E+01
 0.48492708483E+01 0.47000203152E+01 0.46275583925E+01 0.46155855890E+01 0.46362422746E+01
 0.46616009569E+01 0.46722849788E+01 0.46615292395E+01 0.46361365078E+01 0.46155166384E+01
 0.46275696966E+01 0.47000660108E+01 0.48492676903E+01 0.50706149341E+01 0.53365985033E+01
 0.56042728224E+01 0.58352662481E+01 0.59960393705E+01 0.60540333236E+01 0.59959976461E+01
 0.58352008798E+01 0.56042339197E+01 0.53366252835E+01 0.50706683260E+01 0.48492850352E+01
 0.50132021744E+01 0.52084488249E+01 0.53959251664E+01 0.55406797956E+01 0.56199682570E+01
 0.56199217593E+01 0.55406502139E+01 0.53960158097E+01 0.52085245760E+01 0.50131308922E+01
 0.48491847852E+01 0.47466266114E+01 0.47154278045E+01 0.47436721618E+01 0.48042980663E+01
 0.48660992140E+01 0.49037470098E+01 0.49036874467E+01 0.48660361531E+01 0.48043519837E+01
 0.47437425333E+01 0.47154073389E+01 0.47466201335E+01 0.55011907341E+01 0.59591646095E+01
 0.64152269066E+01 0.68197998204E+01 0.71013873834E+01 0.72024750376E+01 0.71015366774E+01
 0.68199433327E+01 0.64152655839E+01 0.59591375792E+01 0.55011508640E+01 0.50705967514E+01
 0.47153786941E+01 0.44615844485E+01 0.43065557610E+01 0.42276899608E+01 0.41959697081E+01
 0.41883494518E+01 0.41960853486E+01 0.42277828677E+01 0.43065587446E+01 0.44615653350E+01
 0.47154007712E+01 0.50706410278E+01 0.68873873308E+01 0.78218805708E+01 0.87295786600E+01
 0.94506732723E+01 0.98488774855E+01 0.98488286796E+01 0.94506483801E+01 0.87296823806E+01
 0.78219690416E+01 0.68873492236E+01 0.60495515356E+01 0.53366822212E+01 0.47437361483E+01
 0.43065050172E+01 0.40240234343E+01 0.38669348100E+01 0.37997177971E+01 0.37996515897E+01
 0.38668954602E+01 0.40241680693E+01 0.43066545213E+01 0.47436913662E+01 0.53365706861E+01
 0.60495632803E+01 0.96279186030E+01 0.11296018693E+02 0.12737679567E+02 0.13709808422E+02
 0.14052174884E+02 0.13709735284E+02 0.12737621708E+02 0.11296038179E+02 0.96279953495E+01
 0.80054567927E+01 0.66422743007E+01 0.56042753932E+01 0.48044761603E+01 0.42277030519E+01
 0.38667530369E+01 0.36790508689E+01 0.36221424713E+01 0.36789911746E+01 0.38667254665E+01
 0.42277490943E+01 0.48045341840E+01 0.56042740827E+01 0.66422152204E+01 0.80053703746E+01
 0.14297348688E+02 0.16723170791E+02 0.18566380437E+02 0.19557890548E+02 0.19558179260E+02
 0.18566677583E+02 0.16722907795E+02 0.14297083385E+02 0.11657949180E+02 0.92001932040E+01
 0.72281060375E+01 0.58350687886E+01 0.48662168657E+01 0.41961295318E+01 0.37995314662E+01
 0.36218486146E+01 0.36221667584E+01 0.37998574299E+01 0.41958098492E+01 0.48658352469E+01
 0.58352848632E+01 0.72283922898E+01 0.91999358377E+01 0.11657669626E+02 0.20953074966E+02
 0.23947624761E+02 0.25920608850E+02 0.26608943692E+02 0.25920713839E+02 0.23947759999E+02
 0.20953117669E+02 0.17341182827E+02 0.13612249709E+02 0.10275893038E+02 0.77069953642E+01
 0.59957777349E+01 0.49037019405E+01 0.41885900471E+01 0.37996945874E+01 0.36787328748E+01
 0.37997004014E+01 0.41886017510E+01 0.49036721813E+01 0.59956707193E+01 0.77068890696E+01
 0.10275912057E+02 0.13612387437E+02 0.17341283858E+02 0.29254743260E+02 0.32561447199E+02
 0.34345870303E+02 0.34345630385E+02 0.32561321302E+02 0.29255224582E+02 0.24873670005E+02
 0.19969856981E+02 0.15156635087E+02 0.11024889805E+02 0.79774327027E+01 0.60538987942E+01
 0.49035416164E+01 0.41962549294E+01 0.38671070782E+01 0.38666877372E+01 0.41957844957E+01
 0.49038483761E+01 0.60542745515E+01 0.79770888224E+01 0.11024533400E+02 0.15157053406E+02
 0.19970338996E+02 0.24873371780E+02 0.38788812981E+02 0.42150109080E+02 0.43344955229E+02
 0.42150274804E+02 0.38789023338E+02 0.33818401965E+02 0.27914810700E+02 0.21754643848E+02
 0.16009210735E+02 0.11293224438E+02 0.79774457738E+01 0.59959990343E+01 0.48658921706E+01
 0.42278070060E+01 0.40243186347E+01 0.42277479117E+01 0.48658055828E+01 0.59959383293E+01
 0.79774581645E+01 0.11293321113E+02 0.16009355444E+02 0.21754765057E+02 0.27914830922E+02
 0.33818281329E+02 0.49134728024E+02 0.52154063054E+02 0.52154195257E+02 0.49134912381E+02
 0.43749463276E+02 0.36942093179E+02 0.29583266049E+02 0.22387275534E+02 0.16009340075E+02
 0.11024648550E+02 0.77070410766E+01 0.58352181124E+01 0.48042643557E+01 0.43065208928E+01
 0.43066909631E+01 0.48044560165E+01 0.58350795835E+01 0.77068469418E+01 0.11024780335E+02
 0.16009600872E+02 0.22387298657E+02 0.29583151933E+02 0.36942089736E+02 0.43749449921E+02
 0.59482244189E+02 0.61449037235E+02 0.59482236507E+02 0.54101969534E+02 0.46536920841E+02
 0.38058269677E+02 0.29583289488E+02 0.21754751925E+02 0.15156844681E+02 0.10275650613E+02
 0.72282043617E+01 0.56041958351E+01 0.47437032489E+01 0.44616018270E+01 0.47437479002E+01
 0.56042401978E+01 0.72282426512E+01 0.10275707954E+02 0.15156889480E+02 0.21754721729E+02
 0.29583202739E+02 0.38058216593E+02 0.46536935295E+02 0.54101998505E+02 0.68251017795E+02
 0.68251274058E+02 0.63725161909E+02 0.55916451616E+02 0.46536750685E+02 0.36942175876E+02
 0.27914886975E+02 0.19970131689E+02 0.13612214572E+02 0.92000865397E+01 0.66424407223E+01
 0.53365633947E+01 0.47153319423E+01 0.47155122095E+01 0.53367258450E+01 0.66422501502E+01
 0.91999829953E+01 0.13612507679E+02 0.19970282537E+02 0.27914533474E+02 0.36941916725E+02
 0.46537046101E+02 0.55916728384E+02 0.63724908300E+02 0.73386752729E+02 0.70772823975E+02
 0.63725260775E+02 0.54102051988E+02 0.43749160413E+02 0.33818280263E+02 0.24873791622E+02
 0.17341558330E+02 0.11657595889E+02 0.80053681261E+01 0.60497616525E+01 0.50706686482E+01
 0.47464309871E+01 0.50706686482E+01 0.60497616525E+01 0.80053681261E+01 0.11657595889E+02
 0.17341558330E+02 0.24873791622E+02 0.33818280263E+02 0.43749160413E+02 0.54102051988E+02
 0.63725260775E+02 0.70772823975E+02 0.65885247798E+02 0.59481965371E+02 0.50671199558E+02
 0.41089973678E+02 0.31802112176E+02 0.23391219101E+02 0.16323099725E+02 0.11032103004E+02
 0.76665223986E+01 0.58667993987E+01 0.49431965610E+01 0.46381009209E+01 0.49431847436E+01
 0.58667799665E+01 0.76665025820E+01 0.11032090612E+02 0.16323100935E+02 0.23391236627E+02
 0.31802144933E+02 0.41090015365E+02 0.50671242644E+02 0.59482000395E+02 0.65885267238E+02
 0.68251299067E+02 0.59482201734E+02 0.52153879785E+02 0.43344556270E+02 0.34345771077E+02
 0.25920773427E+02 0.18566497457E+02 0.12737671158E+02 0.87295822501E+01 0.64152779129E+01
 0.52084918203E+01 0.46275925388E+01 0.46276796488E+01 0.52085368543E+01 0.64151236901E+01
 0.87295401448E+01 0.12737900848E+02 0.18566592987E+02 0.25920513403E+02 0.34345620170E+02
 0.43344848932E+02 0.52154194575E+02 0.59482135121E+02 0.63724968235E+02 0.63725101974E+02
 0.50671214497E+02 0.43344630652E+02 0.35231650450E+02 0.27259775607E+02 0.20032985250E+02
 0.14040783018E+02 0.96592444434E+01 0.69380357992E+01 0.54687401636E+01 0.46696847858E+01
 0.44085799738E+01 0.46696704141E+01 0.54687159815E+01 0.69380102132E+01 0.96592277526E+01
 0.14040786245E+02 0.20033014984E+02 0.27259832263E+02 0.35231727817E+02 0.43344711842E+02
 0.50671283208E+02 0.55916648675E+02 0.57839316141E+02 0.55916609092E+02 0.41089751640E+02
 0.34345636638E+02 0.27259835664E+02 0.20541123952E+02 0.14741540243E+02 0.10290592938E+02
 0.73538191644E+01 0.56847994955E+01 0.47367625361E+01 0.42791223342E+01 0.42792888101E+01
 0.47369477715E+01 0.56846369896E+01 0.73535482273E+01 0.10290605661E+02 0.14741728691E+02
 0.20541192094E+02 0.27259850090E+02 0.34345759564E+02 0.41089818809E+02 0.46536844998E+02
 0.49626696357E+02 0.49626814806E+02 0.46536986866E+02 0.31802112176E+02 0.25920528987E+02
 0.20032970311E+02 0.14741770358E+02 0.10513530607E+02 0.75837678173E+01 0.58299670281E+01
 0.48004169884E+01 0.42164283187E+01 0.40304265929E+01 0.42164321587E+01 0.48004200773E+01
 0.58299630020E+01 0.75837547108E+01 0.10513511753E+02 0.14741755321E+02 0.20032968988E+02
 0.25920544768E+02 0.31802142117E+02 0.36942238418E+02 0.40510840123E+02 0.41796018097E+02
 0.40510819174E+02 0.36942206075E+02 0.23391537741E+02 0.18566415180E+02 0.14040626359E+02
 0.10290809655E+02 0.75840945346E+01 0.58812071287E+01 0.48373740847E+01 0.41930643725E+01
 0.38944553614E+01 0.38940986064E+01 0.41927041801E+01 0.48377565469E+01 0.58816654563E+01
 0.75838421193E+01 0.10290396210E+02 0.14040768665E+02 0.18566626555E+02 0.23391241349E+02
 0.27914586281E+02 0.31472202078E+02 0.33444818734E+02 0.33444469410E+02 0.31471799040E+02
 0.27914809426E+02 0.16323329667E+02 0.12737745540E+02 0.96590294405E+01 0.73537591071E+01
 0.58301969699E+01 0.48375307443E+01 0.41873293771E+01 0.38366588912E+01 0.37282998072E+01
 0.38366702935E+01 0.41873510746E+01 0.48375599229E+01 0.58302271066E+01 0.73537803467E+01
 0.96590327067E+01 0.12737722897E+02 0.16323284285E+02 0.19970105277E+02 0.23144320902E+02
 0.25319136283E+02 0.26094539364E+02 0.25319168771E+02 0.23144374433E+02 0.19970163245E+02
 0.11032080008E+02 0.87296468518E+01 0.69378968153E+01 0.56846004544E+01 0.48003859146E+01
 0.41930466967E+01 0.38365199073E+01 0.36777268136E+01 0.36780290170E+01 0.38368165808E+01
 0.41927129609E+01 0.48000268260E+01 0.56848880863E+01 0.69383009711E+01 0.87295127573E+01
 0.11031847699E+02 0.13612447081E+02 0.16098863282E+02 0.18071613569E+02 0.19165502992E+02
 0.19165835215E+02 0.18072028538E+02 0.16098735777E+02 0.13612249404E+02 0.76665223986E+01
 0.64153360698E+01 0.54687252247E+01 0.47366900543E+01 0.42164283187E+01 0.38944312408E+01
 0.37280698654E+01 0.36777574941E+01 0.37280526610E+01 0.38944067312E+01 0.42164115961E+01
 0.47366909478E+01 0.54687476881E+01 0.64153690002E+01 0.76665544742E+01 0.91999907242E+01
 0.10840788162E+02 0.12318304528E+02 0.13348484200E+02 0.13718184984E+02 0.13348490530E+02
 0.12318310341E+02 0.10840782877E+02 0.91999697483E+01 0.58669217036E+01 0.52086058777E+01
 0.46697244611E+01 0.42791427162E+01 0.40305569753E+01 0.38942949413E+01 0.38367099688E+01
 0.38366379217E+01 0.38942345168E+01 0.40306585862E+01 0.42792327407E+01 0.46696120327E+01
 0.52084418564E+01 0.58669206997E+01 0.66424165419E+01 0.75264302244E+01 0.84133974795E+01
 0.91409233510E+01 0.95520641117E+01 0.95519583858E+01 0.91407521456E+01 0.84133332174E+01
 0.75263952195E+01 0.66423297669E+01 0.49432081207E+01 0.46276669209E+01 0.44085833530E+01
 0.42792287529E+01 0.42164437184E+01 0.41928608398E+01 0.41875694567E+01 0.41928519448E+01
 0.42164231558E+01 0.42791930654E+01 0.44085367292E+01 0.46276205615E+01 0.49431785696E+01
 0.53366119783E+01 0.57653407069E+01 0.61960438022E+01 0.65854668277E+01 0.68619217323E+01
 0.69622856536E+01 0.68618795619E+01 0.65853995638E+01 0.61959774765E+01 0.57652978184E+01
 0.53366065530E+01 0.46379751312E+01 0.46276414571E+01 0.46696342237E+01 0.47368515238E+01
 0.48002862101E+01 0.48376360776E+01 0.48375237324E+01 0.48001296194E+01 0.47368596773E+01
 0.46696878984E+01 0.46275843710E+01 0.46379313033E+01 0.47154426302E+01 0.48545966506E+01
 0.50301393189E+01 0.52054537696E+01 0.53443339672E+01 0.54207708912E+01 0.54206834708E+01
 0.53442466247E+01 0.52055490995E+01 0.50302575886E+01 0.48545482993E+01 0.47153567271E+01
 0.49431847436E+01 0.52085127175E+01 0.54687010426E+01 0.56846468016E+01 0.58299630020E+01
 0.58815590419E+01 0.58299971648E+01 0.56846988572E+01 0.54687476881E+01 0.52085317770E+01
 0.49431670099E+01 0.47153561945E+01 0.45546414940E+01 0.44685761441E+01 0.44437983076E+01
 0.44547335277E+01 0.44744446345E+01 0.44833704683E+01 0.44744510426E+01 0.44547512840E+01
 0.44438328707E+01 0.44686265262E+01 0.45546966404E+01 0.47154009891E+01 0.58669370958E+01
 0.64152029231E+01 0.69380150641E+01 0.73536034337E+01 0.75839199176E+01 0.75840036299E+01
 0.73537851976E+01 0.69381571363E+01 0.64152316102E+01 0.58668858753E+01 0.53366168292E+01
 0.48545556093E+01 0.44685210480E+01 0.41976419154E+01 0.40321824904E+01 0.39459721767E+01
 0.39113959996E+01 0.39114172404E+01 0.39460197321E+01 0.40322269361E+01 0.41976656326E+01
 0.44685352457E+01 0.48545893406E+01 0.53366778358E+01 0.76665713135E+01 0.87296145269E+01
 0.96591739600E+01 0.10290545604E+02 0.10513580485E+02 0.10290552870E+02 0.96591939169E+01
 0.87296517412E+01 0.76666232058E+01 0.66423768667E+01 0.57652835350E+01 0.50301755093E+01
 0.44438670392E+01 0.40321776395E+01 0.37795644186E+01 0.36501446650E+01 0.36112954652E+01
 0.36501848784E+01 0.37796274380E+01 0.40322352442E+01 0.44438965901E+01 0.50301661531E+01
 0.57652406465E+01 0.66423214303E+01 0.11032038896E+02 0.12737936731E+02 0.14040675980E+02
 0.14741558369E+02 0.14741695528E+02 0.14040722270E+02 0.12737612632E+02 0.11031876418E+02
 0.92002335279E+01 0.75265801645E+01 0.61959335375E+01 0.52053796953E+01 0.44548940377E+01
 0.39460872924E+01 0.36500344002E+01 0.35187224186E+01 0.35189592576E+01 0.36502797750E+01
 0.39458732358E+01 0.44546837759E+01 0.52056240389E+01 0.61961364588E+01 0.75262452794E+01
 0.91998569830E+01 0.16323100935E+02 0.18566747604E+02 0.20033000045E+02 0.20541023152E+02
 0.20032968988E+02 0.18566698895E+02 0.16323054344E+02 0.13612079098E+02 0.10840788162E+02
 0.84136661540E+01 0.65854552680E+01 0.53440687776E+01 0.44744446345E+01 0.39116298497E+01
 0.36112267336E+01 0.35186199937E+01 0.36112159536E+01 0.39116058845E+01 0.44744071801E+01
 0.53440207695E+01 0.65854087485E+01 0.84136337331E+01 0.10840782877E+02 0.13612104865E+02
 0.23391211640E+02 0.25920774753E+02 0.27260019231E+02 0.27259723179E+02 0.25920527858E+02
 0.23391584977E+02 0.19970292245E+02 0.16098537330E+02 0.12317985021E+02 0.91410706435E+01
 0.68621087001E+01 0.54205477329E+01 0.44831332552E+01 0.39115993574E+01 0.36503718462E+01
 0.36499825424E+01 0.39111899175E+01 0.44834680973E+01 0.54208777445E+01 0.68616766743E+01
 0.91406524936E+01 0.12318402379E+02 0.16099061729E+02 0.19970064013E+02 0.31801896572E+02
 0.34345694552E+02 0.35231991117E+02 0.34345699506E+02 0.31801893755E+02 0.27914742941E+02
 0.23144799204E+02 0.18071752553E+02 0.13348235839E+02 0.95520244364E+01 0.69625455743E+01
 0.54207196612E+01 0.44742026816E+01 0.39460148812E+01 0.37799445306E+01 0.39459835005E+01
 0.44741588191E+01 0.54206907767E+01 0.69625532465E+01 0.95520723143E+01 0.13348310154E+02
 0.18071827014E+02 0.23144852736E+02 0.27914767683E+02 0.41089724990E+02 0.43344646156E+02
 0.43344840236E+02 0.41089887146E+02 0.36941939966E+02 0.31471917024E+02 0.25319264678E+02
 0.19165770370E+02 0.13718189129E+02 0.95518696668E+01 0.68620079561E+01 0.53444112094E+01
 0.44546731351E+01 0.40321033928E+01 0.40323636385E+01 0.44549224348E+01 0.53441213745E+01
 0.68617352480E+01 0.95522007085E+01 0.13718604976E+02 0.19165636251E+02 0.25318993553E+02