   1   1   0   0
  0.1222285E+02  0.2585607E-09  0.2585607E-09  0.2585607E-09  0.5000000E-15
  1.000000000000000E-004
  CAR 
 unknown system                          
     41.06683646      2.79239341  301     13.35273901      1.00000000
      2.792  0.0000E+00  0.0000E+00
      2.920  0.0000E+00  0.0000E+00
      3.048  0.0000E+00  0.0000E+00
      3.175 -0.1864E-30 -0.2378E-31
      3.303 -0.3455E-26 -0.4408E-27
      3.430 -0.2817E-22 -0.3594E-23
      3.558 -0.1009E-18 -0.1287E-19
      3.685 -0.1533E-15 -0.1957E-16
      3.813 -0.1042E-12 -0.1331E-13
      3.941 -0.3069E-10 -0.3929E-11
      4.068 -0.3876E-08 -0.4984E-09
      4.196 -0.2056E-06 -0.2674E-07
      4.323 -0.4381E-05 -0.5857E-06
      4.451 -0.3263E-04 -0.4749E-05
      4.579 -0.2601E-04 -0.8067E-05
      4.706  0.4053E-03  0.4364E-04
      4.834  0.9700E-03  0.1674E-03
      4.961  0.5197E-03  0.2337E-03
      5.089  0.5625E-03  0.3055E-03
      5.216  0.2473E-02  0.6210E-03
      5.344  0.2605E-02  0.9533E-03
      5.472  0.1097E-02  0.1093E-02
      5.599  0.2196E-02  0.1373E-02
      5.727  0.2638E-02  0.1710E-02
      5.854  0.1602E-02  0.1914E-02
      5.982  0.2952E-02  0.2291E-02
      6.110  0.3910E-02  0.2790E-02
      6.237  0.5636E-02  0.3509E-02
      6.365  0.1205E-01  0.5047E-02
      6.492  0.2023E-01  0.7627E-02
      6.620  0.2583E-01  0.1092E-01
      6.747  0.3395E-01  0.1525E-01
      6.875  0.4252E-01  0.2068E-01
      7.003  0.5200E-01  0.2731E-01
      7.130  0.6753E-01  0.3593E-01
      7.258  0.6914E-01  0.4475E-01
      7.385  0.6068E-01  0.5249E-01
      7.513  0.5847E-01  0.5995E-01
      7.640  0.5470E-01  0.6693E-01
      7.768  0.4919E-01  0.7321E-01
      7.896  0.4368E-01  0.7878E-01
      8.023  0.3251E-01  0.8293E-01
      8.151  0.2724E-01  0.8640E-01
      8.278  0.4327E-01  0.9192E-01
      8.406  0.5717E-01  0.9922E-01
      8.534  0.4332E-01  0.1047E+00
      8.661  0.3136E-01  0.1087E+00
      8.789  0.3910E-01  0.1137E+00
      8.916  0.3976E-01  0.1188E+00
      9.044  0.4008E-01  0.1239E+00
      9.171  0.4474E-01  0.1296E+00
      9.299  0.4190E-01  0.1350E+00
      9.427  0.4791E-01  0.1411E+00
      9.554  0.5961E-01  0.1487E+00
      9.682  0.5829E-01  0.1561E+00
      9.809  0.6120E-01  0.1639E+00
      9.937  0.7253E-01  0.1732E+00
     10.065  0.7286E-01  0.1825E+00
     10.192  0.6297E-01  0.1905E+00
     10.320  0.5000E-01  0.1969E+00
     10.447  0.4011E-01  0.2020E+00
     10.575  0.4132E-01  0.2073E+00
     10.702  0.5090E-01  0.2138E+00
     10.830  0.4492E-01  0.2195E+00
     10.958  0.2874E-01  0.2232E+00
     11.085  0.2741E-01  0.2267E+00
     11.213  0.4230E-01  0.2321E+00
     11.340  0.5968E-01  0.2397E+00
     11.468  0.6321E-01  0.2477E+00
     11.596  0.5435E-01  0.2547E+00
     11.723  0.3739E-01  0.2595E+00
     11.851  0.2920E-01  0.2632E+00
     11.978  0.3927E-01  0.2682E+00
     12.106  0.5366E-01  0.2750E+00
     12.233  0.5084E-01  0.2815E+00
     12.361  0.3184E-01  0.2856E+00
     12.489  0.2165E-01  0.2883E+00
     12.616  0.3841E-01  0.2932E+00
     12.744  0.5348E-01  0.3001E+00
     12.871  0.4463E-01  0.3058E+00
     12.999  0.3696E-01  0.3105E+00
     13.126  0.4928E-01  0.3168E+00
     13.254  0.7280E-01  0.3260E+00
     13.382  0.7114E-01  0.3351E+00
     13.509  0.4587E-01  0.3410E+00
     13.637  0.3862E-01  0.3459E+00
     13.764  0.3486E-01  0.3504E+00
     13.892  0.1236E-01  0.3519E+00
     14.020  0.1470E-02  0.3521E+00
     14.147  0.1533E-02  0.3523E+00
     14.275  0.2582E-03  0.3523E+00
     14.402 -0.1541E-03  0.3523E+00
     14.530  0.1396E-02  0.3525E+00
     14.657  0.4699E-02  0.3531E+00
     14.785  0.1264E-01  0.3547E+00
     14.913  0.1963E-01  0.3572E+00
     15.040  0.1592E-01  0.3593E+00
     15.168  0.6732E-02  0.3601E+00
     15.295  0.2780E-03  0.3601E+00
     15.423  0.2271E-02  0.3604E+00
     15.551  0.9965E-02  0.3617E+00
     15.678  0.9785E-02  0.3630E+00
     15.806  0.2939E-02  0.3633E+00
     15.933  0.2945E-02  0.3637E+00
     16.061  0.6861E-02  0.3646E+00
     16.188  0.7507E-02  0.3655E+00
     16.316  0.5819E-02  0.3663E+00
     16.444  0.6650E-02  0.3671E+00
     16.571  0.9919E-02  0.3684E+00
     16.699  0.8936E-02  0.3695E+00
     16.826  0.7305E-02  0.3705E+00
     16.954  0.8908E-02  0.3716E+00
     17.082  0.9275E-02  0.3728E+00
     17.209  0.5386E-02  0.3735E+00
     17.337  0.6234E-02  0.3743E+00
     17.464  0.8720E-02  0.3754E+00
     17.592  0.5517E-02  0.3761E+00
     17.719  0.5731E-02  0.3768E+00
     17.847  0.1268E-01  0.3784E+00
     17.975  0.1292E-01  0.3801E+00
     18.102  0.3731E-02  0.3806E+00
     18.230 -0.1124E-02  0.3804E+00
     18.357  0.1223E-02  0.3806E+00
     18.485  0.9503E-02  0.3818E+00
     18.612  0.1109E-01  0.3832E+00
     18.740  0.4019E-02  0.3837E+00
     18.868  0.5599E-02  0.3844E+00
     18.995  0.1036E-01  0.3857E+00
     19.123  0.7799E-02  0.3867E+00
     19.250  0.6400E-02  0.3876E+00
     19.378  0.7113E-02  0.3885E+00
     19.506  0.4949E-02  0.3891E+00
     19.633  0.3279E-02  0.3895E+00
     19.761  0.1673E-02  0.3897E+00
     19.888  0.3558E-02  0.3902E+00
     20.016  0.1075E-01  0.3916E+00
     20.143  0.9812E-02  0.3928E+00
     20.271  0.5316E-02  0.3935E+00
     20.399  0.5538E-02  0.3942E+00
     20.526  0.2891E-02  0.3946E+00
     20.654  0.1733E-02  0.3948E+00
     20.781  0.2739E-02  0.3951E+00
     20.909  0.9599E-03  0.3953E+00
     21.037  0.1123E-02  0.3954E+00
     21.164  0.7358E-02  0.3963E+00
     21.292  0.1106E-01  0.3977E+00
     21.419  0.5606E-02  0.3985E+00
     21.547  0.3091E-03  0.3985E+00
     21.674 -0.4545E-03  0.3984E+00
     21.802 -0.3765E-03  0.3984E+00
     21.930 -0.1908E-03  0.3984E+00
     22.057  0.2794E-02  0.3987E+00
     22.185  0.8349E-02  0.3998E+00
     22.312  0.1570E-01  0.4018E+00
     22.440  0.2277E-01  0.4047E+00
     22.568  0.1699E-01  0.4069E+00
     22.695  0.9091E-02  0.4080E+00
     22.823  0.8632E-02  0.4091E+00
     22.950  0.7691E-02  0.4101E+00
     23.078  0.9174E-02  0.4113E+00
     23.205  0.1097E-01  0.4127E+00
     23.333  0.1088E-01  0.4141E+00
     23.461  0.1421E-01  0.4159E+00
     23.588  0.1349E-01  0.4176E+00
     23.716  0.8133E-02  0.4186E+00
     23.843  0.2769E-02  0.4190E+00
     23.971  0.1020E-03  0.4190E+00
     24.099  0.4366E-02  0.4196E+00
     24.226  0.1059E-01  0.4209E+00
     24.354  0.1339E-01  0.4226E+00
     24.481  0.1163E-01  0.4241E+00
     24.609  0.9894E-02  0.4254E+00
     24.736  0.1305E-01  0.4270E+00
     24.864  0.1197E-01  0.4286E+00
     24.992  0.8010E-02  0.4296E+00
     25.119  0.2733E-02  0.4299E+00
     25.247 -0.2125E-03  0.4299E+00
     25.374  0.4059E-02  0.4304E+00
     25.502  0.1177E-01  0.4319E+00
     25.629  0.1145E-01  0.4334E+00
     25.757  0.6887E-02  0.4343E+00
     25.885  0.8393E-02  0.4353E+00
     26.012  0.1198E-01  0.4369E+00
     26.140  0.1290E-01  0.4385E+00
     26.267  0.1276E-01  0.4401E+00
     26.395  0.1656E-01  0.4422E+00
     26.523  0.2443E-01  0.4454E+00
     26.650  0.3017E-01  0.4492E+00
     26.778  0.2603E-01  0.4525E+00
     26.905  0.1303E-01  0.4542E+00
     27.033  0.8317E-02  0.4553E+00
     27.160  0.1505E-01  0.4572E+00
     27.288  0.1685E-01  0.4593E+00
     27.416  0.1004E-01  0.4606E+00
     27.543  0.6915E-02  0.4615E+00
     27.671  0.7985E-02  0.4625E+00
     27.798  0.1093E-01  0.4639E+00
     27.926  0.2207E-01  0.4667E+00
     28.054  0.3358E-01  0.4710E+00
     28.181  0.2351E-01  0.4740E+00
     28.309  0.8493E-02  0.4751E+00
     28.436  0.9454E-02  0.4763E+00
     28.564  0.1411E-01  0.4781E+00
     28.691  0.1696E-01  0.4803E+00
     28.819  0.1863E-01  0.4826E+00
     28.947  0.1952E-01  0.4851E+00
     29.074  0.2654E-01  0.4885E+00
     29.202  0.2747E-01  0.4920E+00
     29.329  0.1459E-01  0.4939E+00
     29.457  0.8689E-02  0.4950E+00
     29.585  0.1319E-01  0.4967E+00
     29.712  0.1532E-01  0.4986E+00
     29.840  0.1177E-01  0.5001E+00
     29.967  0.1080E-01  0.5015E+00
     30.095  0.1430E-01  0.5033E+00
     30.222  0.2441E-01  0.5064E+00
     30.350  0.2883E-01  0.5101E+00
     30.478  0.2935E-01  0.5139E+00
     30.605  0.4086E-01  0.5191E+00
     30.733  0.4544E-01  0.5249E+00
     30.860  0.2715E-01  0.5283E+00
     30.988  0.1509E-01  0.5303E+00
     31.115  0.1402E-01  0.5321E+00
     31.243  0.9361E-02  0.5333E+00
     31.371  0.9066E-02  0.5344E+00
     31.498  0.2209E-01  0.5372E+00
     31.626  0.3762E-01  0.5420E+00
     31.753  0.3566E-01  0.5466E+00
     31.881  0.1595E-01  0.5486E+00
     32.009  0.4417E-02  0.5492E+00
     32.136  0.8244E-02  0.5502E+00
     32.264  0.1578E-01  0.5522E+00
     32.391  0.2333E-01  0.5552E+00
     32.519  0.2698E-01  0.5587E+00
     32.646  0.2076E-01  0.5613E+00
     32.774  0.1211E-01  0.5629E+00
     32.902  0.6714E-02  0.5637E+00
     33.029  0.7494E-02  0.5647E+00
     33.157  0.1859E-01  0.5670E+00
     33.284  0.2532E-01  0.5703E+00
     33.412  0.2129E-01  0.5730E+00
     33.540  0.1640E-01  0.5751E+00
     33.667  0.1368E-01  0.5768E+00
     33.795  0.8260E-02  0.5779E+00
     33.922  0.3117E-02  0.5783E+00
     34.050  0.1886E-02  0.5785E+00
     34.177  0.4464E-02  0.5791E+00
     34.305  0.5582E-02  0.5798E+00
     34.433  0.4982E-02  0.5804E+00
     34.560  0.9347E-02  0.5816E+00
     34.688  0.1233E-01  0.5832E+00
     34.815  0.6346E-02  0.5840E+00
     34.943  0.2360E-02  0.5843E+00
     35.071  0.2699E-02  0.5846E+00
     35.198  0.7091E-02  0.5856E+00
     35.326  0.1145E-01  0.5870E+00
     35.453  0.6773E-02  0.5879E+00
     35.581  0.2754E-02  0.5882E+00
     35.708  0.8757E-02  0.5893E+00
     35.836  0.1217E-01  0.5909E+00
     35.964  0.7634E-02  0.5919E+00
     36.091  0.4106E-02  0.5924E+00
     36.219  0.4194E-02  0.5929E+00
     36.346  0.6706E-02  0.5938E+00
     36.474  0.8982E-02  0.5949E+00
     36.601  0.1071E-01  0.5963E+00
     36.729  0.8684E-02  0.5974E+00
     36.857  0.3843E-02  0.5979E+00
     36.984  0.5037E-03  0.5980E+00
     37.112 -0.2746E-03  0.5979E+00
     37.239 -0.2480E-03  0.5979E+00
     37.367 -0.2582E-03  0.5979E+00
     37.495  0.1857E-02  0.5981E+00
     37.622  0.5860E-02  0.5988E+00
     37.750  0.4666E-02  0.5994E+00
     37.877  0.6689E-03  0.5995E+00
     38.005 -0.3541E-03  0.5995E+00
     38.132  0.1504E-04  0.5995E+00
     38.260  0.7464E-03  0.5996E+00
     38.388  0.9903E-03  0.5997E+00
     38.515  0.3329E-03  0.5997E+00
     38.643 -0.4867E-04  0.5997E+00
     38.770 -0.7504E-04  0.5997E+00
     38.898  0.5361E-04  0.5997E+00
     39.026  0.6731E-03  0.5998E+00
     39.153  0.1022E-02  0.6000E+00
     39.281  0.4098E-03  0.6000E+00
     39.408 -0.2586E-04  0.6000E+00
     39.536 -0.3263E-04  0.6000E+00
     39.663 -0.4381E-05  0.6000E+00
     39.791 -0.2056E-06  0.6000E+00
     39.919 -0.3876E-08  0.6000E+00
     40.046 -0.3069E-10  0.6000E+00
     40.174 -0.1042E-12  0.6000E+00
     40.301 -0.1536E-15  0.6000E+00
     40.429  0.0000E+00  0.6000E+00
     40.557  0.0000E+00  0.6000E+00
     40.684  0.0000E+00  0.6000E+00
     40.812  0.0000E+00  0.6000E+00
     40.939  0.0000E+00  0.6000E+00
     41.067  0.0000E+00  0.6000E+00
