    1    1   30    1
  0.1222285E+02  0.2585607E-09  0.2585607E-09  0.2585607E-09  0.5000000E-15
  1.000000000000000E-004
  CAR 
 unknown system                          
     10     60      9
 
  0.6250000E-01  0.6250000E-01  0.6250000E-01  0.3906250E-02
    1        4.792393
    2        9.431002
    3        9.567614
    4        9.567614
    5       11.657047
    6       11.657047
    7       30.640118
    8       35.341947
    9       36.533218
 
  0.1875000E+00  0.6250000E-01  0.6250000E-01  0.1171875E-01
    1        5.616242
    2        9.100297
    3        9.846305
    4        9.883445
    5       11.332836
    6       11.806783
    7       31.643209
    8       32.806031
    9       36.625272
 
  0.3125000E+00  0.6250000E-01  0.6250000E-01  0.1171875E-01
    1        6.701095
    2        9.456807
    3        9.888874
    4        9.942151
    5       11.647950
    6       12.547451
    7       28.749042
    8       31.982821
    9       37.602229
 
  0.4375000E+00  0.6250000E-01  0.6250000E-01  0.1171875E-01
    1        6.612829
    2        9.461058
    3        9.620925
    4       11.629885
    5       12.731559
    6       14.017169
    7       24.364442
    8       30.523450
    9       35.900305
 
 -0.4375000E+00  0.6250000E-01  0.6250000E-01  0.1171875E-01
    1        6.497593
    2        9.309730
    3        9.536840
    4       12.289229
    5       13.344826
    6       14.965280
    7       22.425927
    8       30.046798
    9       35.800851
 
 -0.3125000E+00  0.6250000E-01  0.6250000E-01  0.1171875E-01
    1        6.685065
    2        9.531117
    3        9.771254
    4       10.795031
    5       12.918926
    6       13.051729
    7       25.777263
    8       31.003338
    9       36.750527
 
 -0.1875000E+00  0.6250000E-01  0.6250000E-01  0.1171875E-01
    1        6.457971
    2        9.085764
    3        9.930628
    4       10.016931
    5       11.556416
    6       12.075048
    7       30.161771
    8       32.279737
    9       37.596618
 
 -0.6250000E-01  0.6250000E-01  0.6250000E-01  0.1171875E-01
    1        5.224055
    2        9.182650
    3        9.767601
    4        9.775888
    5       11.379066
    6       11.782936
    7       31.231034
    8       34.147072
    9       36.551354
 
  0.1875000E+00  0.1875000E+00  0.6250000E-01  0.1171875E-01
    1        5.999966
    2        8.715255
    3       10.140460
    4       10.183307
    5       11.015103
    6       12.020658
    7       32.258296
    8       33.131363
    9       36.067620
 
  0.3125000E+00  0.1875000E+00  0.6250000E-01  0.2343750E-01
    1        7.087829
    2        8.328868
    3        9.843564
    4       10.683881
    5       11.526850
    6       12.727306
    7       30.649786
    8       32.628231
    9       35.317231
 
  0.4375000E+00  0.1875000E+00  0.6250000E-01  0.2343750E-01
    1        7.222856
    2        8.995440
    3        9.567366
    4       10.481127
    5       12.852798
    6       14.758784
    7       26.069927
    8       31.433452
    9       33.618957
 
 -0.4375000E+00  0.1875000E+00  0.6250000E-01  0.2343750E-01
    1        7.105501
    2        8.763240
    3       10.162481
    4       10.639067
    5       13.243619
    6       17.394655
    7       22.316335
    8       30.601653
    9       33.201424
 
 -0.3125000E+00  0.1875000E+00  0.6250000E-01  0.2343750E-01
    1        7.283826
    2        8.962607
    3       10.000938
    4       10.373242
    5       12.564408
    6       15.986724
    7       24.652596
    8       30.651903
    9       33.311261
 
 -0.1875000E+00  0.1875000E+00  0.6250000E-01  0.2343750E-01
    1        7.460196
    2        8.633036
    3        9.562486
    4       10.612543
    5       11.309513
    6       13.673680
    7       29.185492
    8       31.513956
    9       35.201583
 
 -0.6250000E-01  0.1875000E+00  0.6250000E-01  0.2343750E-01
    1        6.318397
    2        8.778711
    3       10.002728
    4       10.176018
    5       11.152589
    6       12.161289
    7       31.577246
    8       32.370735
    9       36.302843
 
  0.3125000E+00  0.3125000E+00  0.6250000E-01  0.1171875E-01
    1        7.140362
    2        7.592258
    3       10.761934
    4       11.475780
    5       12.248035
    6       12.708871
    7       31.176807
    8       32.534992
    9       32.737693
 
  0.4375000E+00  0.3125000E+00  0.6250000E-01  0.2343750E-01
    1        7.104633
    2        7.412688
    3       10.628626
    4       12.039620
    5       12.963265
    6       15.046338
    7       28.155956
    8       30.197195
    9       30.803391
 
 -0.4375000E+00  0.3125000E+00  0.6250000E-01  0.2343750E-01
    1        7.197112
    2        7.976716
    3       10.114040
    4       11.529257
    5       13.351249
    6       18.994307
    7       23.482527
    8       28.644119
    9       30.666583
 
 -0.3125000E+00  0.3125000E+00  0.6250000E-01  0.2343750E-01
    1        7.776727
    2        8.564074
    3        9.363664
    4       11.169700
    5       12.631368
    6       19.253086
    7       24.138978
    8       27.016111
    9       32.459399
 
 -0.1875000E+00  0.3125000E+00  0.6250000E-01  0.2343750E-01
    1        8.017194
    2        8.778527
    3        9.076861
    4       10.855247
    5       11.893862
    6       16.197798
    7       26.673626
    8       29.047176
    9       33.366386
 
 -0.6250000E-01  0.3125000E+00  0.6250000E-01  0.2343750E-01
    1        6.987181
    2        9.513554
    3        9.631171
    4       10.106498
    5       12.115494
    6       13.422221
    7       27.434318
    8       31.696858
    9       35.697691
 
  0.4375000E+00  0.4375000E+00  0.6250000E-01  0.1171875E-01
    1        6.448486
    2        6.758303
    3       12.690992
    4       12.842459
    5       13.426276
    6       15.543501
    7       28.006700
    8       28.426238
    9       28.844470
 
 -0.4375000E+00  0.4375000E+00  0.6250000E-01  0.2343750E-01
    1        6.487798
    2        6.883824
    3       11.995654
    4       12.791349
    5       13.660317
    6       18.507141
    7       25.890733
    8       26.627053
    9       28.055624
 
 -0.3125000E+00  0.4375000E+00  0.6250000E-01  0.2343750E-01
    1        7.059120
    2        7.811351
    3       10.400620
    4       11.894682
    5       13.277921
    6       21.157396
    7       22.728033
    8       26.445236
    9       30.220644
 
 -0.1875000E+00  0.4375000E+00  0.6250000E-01  0.2343750E-01
    1        7.539329
    2        8.463316
    3        9.975694
    4       10.685978
    5       12.998172
    6       18.879390
    7       22.437150
    8       29.392243
    9       32.432867
 
 -0.6250000E-01  0.4375000E+00  0.6250000E-01  0.2343750E-01
    1        6.764647
    2        9.158813
    3        9.784600
    4       11.275338
    5       13.138020
    6       15.519349
    7       23.168965
    8       30.507455
    9       34.630442
 
 -0.4375000E+00 -0.4375000E+00  0.6250000E-01  0.1171875E-01
    1        6.205198
    2        6.575960
    3       13.155771
    4       13.235099
    5       13.691388
    6       17.037381
    7       26.479396
    8       27.212782
    9       27.927734
 
 -0.3125000E+00 -0.4375000E+00  0.6250000E-01  0.2343750E-01
    1        6.727539
    2        7.059627
    3       11.421138
    4       12.606967
    5       13.378133
    6       16.914970
    7       26.801287
    8       28.417820
    9       28.836246
 
 -0.1875000E+00 -0.4375000E+00  0.6250000E-01  0.2343750E-01
    1        7.300417
    2        8.381265
    3        9.767161
    4       10.995737
    5       13.266372
    6       16.696703
    7       24.679350
    8       30.688846
    9       31.723682
 
 -0.3125000E+00 -0.3125000E+00  0.6250000E-01  0.1171875E-01
    1        6.845830
    2        7.109358
    3       11.764803
    4       12.223066
    5       13.078680
    6       13.721959
    7       29.586183
    8       30.478259
    9       30.729252
 
 -0.1875000E+00 -0.3125000E+00  0.6250000E-01  0.2343750E-01
    1        7.381285
    2        7.871986
    3        9.941812
    4       11.328961
    5       12.318615
    6       13.594711
    7       29.555965
    8       31.728723
    9       33.118985
 
 -0.1875000E+00 -0.1875000E+00  0.6250000E-01  0.1171875E-01
    1        6.836237
    2        8.151408
    3       10.302159
    4       10.765391
    5       11.267938
    6       12.342116
    7       32.229204
    8       33.469746
    9       34.610504
 
  0.1875000E+00  0.1875000E+00  0.1875000E+00  0.3906250E-02
    1        5.925836
    2        9.172682
    3        9.880138
    4        9.880138
    5       11.614656
    6       11.614656
    7       31.358894
    8       32.017431
    9       38.287377
 
  0.3125000E+00  0.1875000E+00  0.1875000E+00  0.1171875E-01
    1        6.868803
    2        8.774250
    3        9.904688
    4       10.296453
    5       11.027358
    6       12.766697
    7       30.298712
    8       32.152252
    9       36.470552
 
  0.4375000E+00  0.1875000E+00  0.1875000E+00  0.1171875E-01
    1        7.779390
    2        8.846847
    3        9.453602
    4       10.518467
    5       11.370612
    6       14.833041
    7       27.900675
    8       30.301975
    9       34.411779
 
 -0.4375000E+00  0.1875000E+00  0.1875000E+00  0.1171875E-01
    1        7.381344
    2        8.772217
    3       10.294617
    4       10.302397
    5       12.668349
    6       17.336353
    7       23.423321
    8       29.923960
    9       33.400693
 
 -0.3125000E+00  0.1875000E+00  0.1875000E+00  0.1171875E-01
    1        7.155719
    2        8.678492
    3       10.186569
    4       10.430561
    5       13.410842
    6       17.068531
    7       23.139257
    8       30.621342
    9       33.650477
 
 -0.1875000E+00  0.1875000E+00  0.1875000E+00  0.1171875E-01
    1        7.236895
    2        8.428064
    3        9.737526
    4       10.748584
    5       13.077785
    6       13.710682
    7       27.730981
    8       32.141711
    9       33.560262
 
  0.3125000E+00  0.3125000E+00  0.1875000E+00  0.1171875E-01
    1        7.003255
    2        8.849888
    3        9.711157
    4       10.304724
    5       12.268778
    6       12.598993
    7       29.018108
    8       32.463965
    9       35.716554
 
  0.4375000E+00  0.3125000E+00  0.1875000E+00  0.2343750E-01
    1        7.741975
    2        8.425890
    3        9.207275
    4       11.161601
    5       12.007758
    6       14.875604
    7       28.015540
    8       30.429976
    9       33.161674
 
 -0.4375000E+00  0.3125000E+00  0.1875000E+00  0.2343750E-01
    1        8.157394
    2        8.303393
    3        8.972842
    4       11.331849
    5       12.574720
    6       17.898282
    7       25.457194
    8       27.942175
    9       31.519630
 
 -0.3125000E+00  0.3125000E+00  0.1875000E+00  0.2343750E-01
    1        7.731142
    2        8.193456
    3        9.533511
    4       11.193699
    5       13.183911
    6       20.025667
    7       22.453816
    8       29.110629
    9       29.909480
 
 -0.1875000E+00  0.3125000E+00  0.1875000E+00  0.2343750E-01
    1        7.569613
    2        7.960217
    3        9.551042
    4       11.766419
    5       12.696615
    6       16.502518
    7       26.735834
    8       29.161210
    9       30.991874
 
  0.4375000E+00  0.4375000E+00  0.1875000E+00  0.1171875E-01
    1        7.106547
    2        7.865994
    3       10.306390
    4       11.313844
    5       13.409402
    6       15.626930
    7       26.282346
    8       30.713006
    9       31.700250
 
 -0.4375000E+00  0.4375000E+00  0.1875000E+00  0.2343750E-01
    1        7.226653
    2        7.613056
    3       10.135605
    4       12.123330
    5       13.263743
    6       18.497922
    7       25.577516
    8       28.023839
    9       28.654827
 
 -0.3125000E+00  0.4375000E+00  0.1875000E+00  0.2343750E-01
    1        7.455207
    2        8.269412
    3        9.331228
    4       11.588329
    5       13.645378
    6       22.115820
    7       23.668065
    8       26.201584
    9       27.216576
 
 -0.1875000E+00  0.4375000E+00  0.1875000E+00  0.2343750E-01
    1        7.734841
    2        8.280907
    3        9.130221
    4       11.574866
    5       13.216105
    6       19.977887
    7       24.360815
    8       27.161216
    9       29.035887
 
 -0.4375000E+00 -0.4375000E+00  0.1875000E+00  0.1171875E-01
    1        6.660654
    2        7.246128
    3       11.425776
    4       12.399057
    5       13.436436
    6       19.614457
    7       24.187284
    8       26.486322
    9       29.670013
 
 -0.3125000E+00 -0.4375000E+00  0.1875000E+00  0.2343750E-01
    1        6.981139
    2        7.465702
    3       10.594794
    4       12.151507
    5       13.648684
    6       20.328350
    7       24.860784
    8       26.385832
    9       27.642215
 
 -0.3125000E+00 -0.3125000E+00  0.1875000E+00  0.1171875E-01
    1        6.849498
    2        7.445158
    3       10.981930
    4       11.919525
    5       13.518544
    6       17.782034
    7       24.975176
    8       28.472243
    9       30.364466
 
  0.3125000E+00  0.3125000E+00  0.3125000E+00  0.3906250E-02
    1        6.613309
    2        9.750025
    3        9.750025
    4       10.475891
    5       12.324377
    6       12.324377
    7       27.194950
    8       31.390242
    9       39.066836
 
  0.4375000E+00  0.3125000E+00  0.3125000E+00  0.1171875E-01
    1        7.081313
    2        9.340632
    3        9.994082
    4       10.222579
    5       12.068837
    6       14.562611
    7       26.004325
    8       31.085706
    9       34.579956
 
 -0.4375000E+00  0.3125000E+00  0.3125000E+00  0.1171875E-01
    1        7.946298
    2        8.748114
    3        9.363071
    4       10.811410
    5       12.129656
    6       17.603825
    7       25.423454
    8       27.828309
    9       33.842781
 
 -0.3125000E+00  0.3125000E+00  0.3125000E+00  0.1171875E-01
    1        7.317381
    2        8.301463
    3        9.947017
    4       11.483273
    5       12.875985
    6       20.708033
    7       22.718633
    8       26.571556
    9       32.582032
 
  0.4375000E+00  0.4375000E+00  0.3125000E+00  0.1171875E-01
    1        6.894480
    2        9.140582
    3       10.006439
    4       10.474997
    5       13.310723
    6       14.848162
    7       24.410120
    8       30.959083
    9       34.921920
 
 -0.4375000E+00  0.4375000E+00  0.3125000E+00  0.2343750E-01
    1        7.561909
    2        8.470826
    3        9.774949
    4       10.756932
    5       13.010739
    6       17.845366
    7       23.399847
    8       30.218720
    9       31.605214
 
 -0.3125000E+00  0.4375000E+00  0.3125000E+00  0.2343750E-01
    1        7.602601
    2        8.333872
    3        9.357287
    4       11.469296
    5       13.216665
    6       21.265896
    7       22.957822
    8       26.606645
    9       29.704185
 
 -0.4375000E+00 -0.4375000E+00  0.3125000E+00  0.1171875E-01
    1        7.317166
    2        8.370463
    3       10.017198
    4       10.978882
    5       13.213499
    6       19.404461
    7       22.239890
    8       28.863587
    9       32.905584
 
  0.4375000E+00  0.4375000E+00  0.4375000E+00  0.3906250E-02
    1        6.417600
    2        9.463325
    3        9.463325
    4       13.195606
    5       13.195606
    6       13.289143
    7       23.156789
    8       30.020655
    9       36.570424
 
 -0.4375000E+00  0.4375000E+00  0.4375000E+00  0.1171875E-01
    1        6.835597
    2        9.036990
    3        9.830576
    4       11.292275
    5       13.144273
    6       16.467380
    7       22.386107
    8       30.427234
    9       34.227524
