 vasp.5.3.5 31Mar14 (build Jan 09 2015 16:57:47) complex                        
  
 executed on             LinuxIFC date 2015.03.24  14:25:57
 serial version


--------------------------------------------------------------------------------------------------------


 INCAR:
 POTCAR:    PAW_PBE Pd 04Jan2005                  
 POTCAR:    PAW_PBE Pd 04Jan2005                  
   VRHFIN =Pd : s1 d9                                                           
   LEXCH  = PE                                                                  
   EATOM  =   809.7530 eV,   59.5152 Ry                                         
                                                                                
   TITEL  = PAW_PBE Pd 04Jan2005                                                
   LULTRA =        F    use ultrasoft PP ?                                      
   IUNSCR =        1    unscreen: 0-lin 1-nonlin 2-no                           
   RPACOR =    2.000    partial core radius                                     
   POMASS =  106.420; ZVAL   =   10.000    mass and valenz                      
   RCORE  =    2.600    outmost cutoff radius                                   
   RWIGS  =    2.710; RWIGS  =    1.434    wigner-seitz radius (au A)           
   ENMAX  =  250.925; ENMIN  =  188.194 eV                                      
   ICORE  =        3    local potential                                         
   LCOR   =        T    correct aug charges                                     
   LPAW   =        T    paw PP                                                  
   EAUG   =  416.230                                                            
   DEXC   =    0.000                                                            
   RMAX   =    2.653    core radius for proj-oper                               
   RAUG   =    1.300    factor for augmentation sphere                          
   RDEP   =    2.734    radius for radial grids                                 
   RDEPT  =    2.103    core radius for aug-charge                              
                                                                                
   Atomic configuration                                                         
   12 entries                                                                   
     n  l   j            E        occ.                                          
     1  0  0.50    -24164.6631   2.0000                                         
     2  0  0.50     -3530.9218   2.0000                                         
     2  1  1.50     -3165.6822   6.0000                                         
     3  0  0.50      -639.4577   2.0000                                         
     3  1  1.50      -519.4532   6.0000                                         
     3  2  2.50      -328.9757  10.0000                                         
     4  0  0.50       -88.7014   2.0000                                         
     4  1  1.50       -54.4540   6.0000                                         
     4  2  2.50        -6.6878   9.0000                                         
     5  0  0.50        -4.3543   1.0000                                         
     5  1  0.50        -1.3606   0.0000                                         
     4  3  2.50        -1.3606   0.0000                                         
   Description                                                                  
     l       E           TYP  RCUT    TYP  RCUT                                 
     2     -6.6878251     23  2.400                                             
     2     -8.0484077     23  2.400                                             
     0     -4.3542939     23  2.400                                             
     0      4.3406793     23  2.400                                             
     1     -4.0817478     23  2.600                                             
     1     15.8380318     23  2.600                                             
     3     -4.0817478     23  2.400                                             
  local pseudopotential read in
  partial core-charges read in
  partial kinetic energy density read in
  atomic valenz-charges read in
  non local Contribution for L=           2  read in
    real space projection operators read in
  non local Contribution for L=           2  read in
    real space projection operators read in
  non local Contribution for L=           0  read in
    real space projection operators read in
  non local Contribution for L=           0  read in
    real space projection operators read in
  non local Contribution for L=           1  read in
    real space projection operators read in
  non local Contribution for L=           1  read in
    real space projection operators read in
    PAW grid and wavefunctions read in
 
   number of l-projection  operators is LMAX  =           6
   number of lm-projection operators is LMMAX =          18
 
  PAW_PBE Pd 04Jan2005                  :
 energy of atom  1       EATOM= -809.7530
 kinetic energy error for atom=    0.0269 (will be added to EATOM!!)
 
 
 POSCAR: Pd                                      
  positions in cartesian coordinates
  No initial velocities read in
 exchange correlation table for  LEXCH =        8
   RHO(1)=    0.500       N(1)  =     2000
   RHO(2)=  100.500       N(2)  =     4000

 VTST: version 3.1, (03/28/14)

 CHAIN: initializing optimizer
 
 OPT: Using VASP Conjugate-Gradient optimizer
 CHAIN: Read ICHAIN            0
 
 POSCAR: Pd                                      
  positions in cartesian coordinates
  No initial velocities read in
 


--------------------------------------------------------------------------------------------------------


 ion  position               nearest neighbor table
   1  0.000  0.000  0.000-
 
  LATTYP: Found a face centered cubic cell.
 ALAT       =     3.6566000000
  
  Lattice vectors:
  
 A1 = (   2.5856066561,   0.0000000000,   0.0000000000)
 A2 = (   1.2928033280,   2.2392010484,   0.0000000000)
 A3 = (   1.2928033280,   0.7464003495,   2.1111389943)


Analysis of symmetry for initial positions (statically):
=====================================================================
 Subroutine PRICEL returns:
 Original cell was already a primitive cell.
 

 Routine SETGRP: Setting up the symmetry group for a 
 face centered cubic supercell.


 Subroutine GETGRP returns: Found 48 space group operations
 (whereof 48 operations were pure point group operations)
 out of a pool of 48 trial point group operations.


The static configuration has the point symmetry O_h .


Analysis of symmetry for dynamics (positions and initial velocities):
=====================================================================
 Subroutine PRICEL returns:
 Original cell was already a primitive cell.
 

 Routine SETGRP: Setting up the symmetry group for a 
 face centered cubic supercell.


 Subroutine GETGRP returns: Found 48 space group operations
 (whereof 48 operations were pure point group operations)
 out of a pool of 48 trial point group operations.


The dynamic configuration has the point symmetry O_h .
 
 
 KPOINTS: KPOINTS created by Atomic Simulation Env

Automatic generation of k-mesh.
Space group operators:
 irot       det(A)        alpha          n_x          n_y          n_z        tau_x        tau_y        tau_z
    1     1.000000     0.000000     1.000000     0.000000     0.000000     0.000000     0.000000     0.000000
    2    -1.000000     0.000000     1.000000     0.000000     0.000000     0.000000     0.000000     0.000000
    3     1.000000   120.000000    -0.816497    -0.471405    -0.333333     0.000000     0.000000     0.000000
    4    -1.000000   120.000000    -0.816497    -0.471405    -0.333333     0.000000     0.000000     0.000000
    5     1.000000   120.000000     0.816497     0.471405     0.333333     0.000000     0.000000     0.000000
    6    -1.000000   120.000000     0.816497     0.471405     0.333333     0.000000     0.000000     0.000000
    7     1.000000    90.000000    -0.707107    -0.408248     0.577350     0.000000     0.000000     0.000000
    8    -1.000000    90.000000    -0.707107    -0.408248     0.577350     0.000000     0.000000     0.000000
    9     1.000000   180.000000     1.000000     0.000000     0.000000     0.000000     0.000000     0.000000
   10    -1.000000   180.000000     1.000000     0.000000     0.000000     0.000000     0.000000     0.000000
   11     1.000000    90.000000     0.707107    -0.408248     0.577350     0.000000     0.000000     0.000000
   12    -1.000000    90.000000     0.707107    -0.408248     0.577350     0.000000     0.000000     0.000000
   13     1.000000   180.000000    -0.707107    -0.408248     0.577350     0.000000     0.000000     0.000000
   14    -1.000000   180.000000    -0.707107    -0.408248     0.577350     0.000000     0.000000     0.000000
   15     1.000000   120.000000     0.816497    -0.471405    -0.333333     0.000000     0.000000     0.000000
   16    -1.000000   120.000000     0.816497    -0.471405    -0.333333     0.000000     0.000000     0.000000
   17     1.000000   120.000000     0.000000    -0.942809     0.333333     0.000000     0.000000     0.000000
   18    -1.000000   120.000000     0.000000    -0.942809     0.333333     0.000000     0.000000     0.000000
   19     1.000000    90.000000     0.707107     0.408248    -0.577350     0.000000     0.000000     0.000000
   20    -1.000000    90.000000     0.707107     0.408248    -0.577350     0.000000     0.000000     0.000000
   21     1.000000    90.000000     0.000000    -0.816497    -0.577350     0.000000     0.000000     0.000000
   22    -1.000000    90.000000     0.000000    -0.816497    -0.577350     0.000000     0.000000     0.000000
   23     1.000000   180.000000     0.500000     0.866025     0.000000     0.000000     0.000000     0.000000
   24    -1.000000   180.000000     0.500000     0.866025     0.000000     0.000000     0.000000     0.000000
   25     1.000000   120.000000     0.000000     0.942809    -0.333333     0.000000     0.000000     0.000000
   26    -1.000000   120.000000     0.000000     0.942809    -0.333333     0.000000     0.000000     0.000000
   27     1.000000   120.000000     0.000000     0.000000    -1.000000     0.000000     0.000000     0.000000
   28    -1.000000   120.000000     0.000000     0.000000    -1.000000     0.000000     0.000000     0.000000
   29     1.000000   180.000000     0.000000    -0.816497    -0.577350     0.000000     0.000000     0.000000
   30    -1.000000   180.000000     0.000000    -0.816497    -0.577350     0.000000     0.000000     0.000000
   31     1.000000    90.000000    -0.707107     0.408248    -0.577350     0.000000     0.000000     0.000000
   32    -1.000000    90.000000    -0.707107     0.408248    -0.577350     0.000000     0.000000     0.000000
   33     1.000000   179.999999     0.500000     0.288675     0.816497     0.000000     0.000000     0.000000
   34    -1.000000   179.999999     0.500000     0.288675     0.816497     0.000000     0.000000     0.000000
   35     1.000000    90.000000     0.000000     0.816497     0.577350     0.000000     0.000000     0.000000
   36    -1.000000    90.000000     0.000000     0.816497     0.577350     0.000000     0.000000     0.000000
   37     1.000000   120.000000    -0.816497     0.471405     0.333333     0.000000     0.000000     0.000000
   38    -1.000000   120.000000    -0.816497     0.471405     0.333333     0.000000     0.000000     0.000000
   39     1.000000   180.000000    -0.707107     0.408248    -0.577350     0.000000     0.000000     0.000000
   40    -1.000000   180.000000    -0.707107     0.408248    -0.577350     0.000000     0.000000     0.000000
   41     1.000000   120.000000     0.000000     0.000000     1.000000     0.000000     0.000000     0.000000
   42    -1.000000   120.000000     0.000000     0.000000     1.000000     0.000000     0.000000     0.000000
   43     1.000000   180.000000     0.000000    -0.577350     0.816497     0.000000     0.000000     0.000000
   44    -1.000000   180.000000     0.000000    -0.577350     0.816497     0.000000     0.000000     0.000000
   45     1.000000   180.000000    -0.500000     0.866025     0.000000     0.000000     0.000000     0.000000
   46    -1.000000   180.000000    -0.500000     0.866025     0.000000     0.000000     0.000000     0.000000
   47     1.000000   179.999999    -0.500000     0.288675     0.816497     0.000000     0.000000     0.000000
   48    -1.000000   179.999999    -0.500000     0.288675     0.816497     0.000000     0.000000     0.000000
 
 Subroutine IBZKPT returns following result:
 ===========================================
 
 Found     60 irreducible k-points:
 
 Following reciprocal coordinates:
            Coordinates               Weight
  0.062500  0.062500  0.062500     96.000000
  0.187500  0.062500  0.062500    288.000000
  0.312500  0.062500  0.062500    288.000000
  0.437500  0.062500  0.062500    288.000000
 -0.437500  0.062500  0.062500    288.000000
 -0.312500  0.062500  0.062500    288.000000
 -0.187500  0.062500  0.062500    288.000000
 -0.062500  0.062500  0.062500    288.000000
  0.187500  0.187500  0.062500    288.000000
  0.312500  0.187500  0.062500    576.000000
  0.437500  0.187500  0.062500    576.000000
 -0.437500  0.187500  0.062500    576.000000
 -0.312500  0.187500  0.062500    576.000000
 -0.187500  0.187500  0.062500    576.000000
 -0.062500  0.187500  0.062500    576.000000
  0.312500  0.312500  0.062500    288.000000
  0.437500  0.312500  0.062500    576.000000
 -0.437500  0.312500  0.062500    576.000000
 -0.312500  0.312500  0.062500    576.000000
 -0.187500  0.312500  0.062500    576.000000
 -0.062500  0.312500  0.062500    576.000000
  0.437500  0.437500  0.062500    288.000000
 -0.437500  0.437500  0.062500    576.000000
 -0.312500  0.437500  0.062500    576.000000
 -0.187500  0.437500  0.062500    576.000000
 -0.062500  0.437500  0.062500    576.000000
 -0.437500 -0.437500  0.062500    288.000000
 -0.312500 -0.437500  0.062500    576.000000
 -0.187500 -0.437500  0.062500    576.000000
 -0.312500 -0.312500  0.062500    288.000000
 -0.187500 -0.312500  0.062500    576.000000
 -0.187500 -0.187500  0.062500    288.000000
  0.187500  0.187500  0.187500     96.000000
  0.312500  0.187500  0.187500    288.000000
  0.437500  0.187500  0.187500    288.000000
 -0.437500  0.187500  0.187500    288.000000
 -0.312500  0.187500  0.187500    288.000000
 -0.187500  0.187500  0.187500    288.000000
  0.312500  0.312500  0.187500    288.000000
  0.437500  0.312500  0.187500    576.000000
 -0.437500  0.312500  0.187500    576.000000
 -0.312500  0.312500  0.187500    576.000000
 -0.187500  0.312500  0.187500    576.000000
  0.437500  0.437500  0.187500    288.000000
 -0.437500  0.437500  0.187500    576.000000
 -0.312500  0.437500  0.187500    576.000000
 -0.187500  0.437500  0.187500    576.000000
 -0.437500 -0.437500  0.187500    288.000000
 -0.312500 -0.437500  0.187500    576.000000
 -0.312500 -0.312500  0.187500    288.000000
  0.312500  0.312500  0.312500     96.000000
  0.437500  0.312500  0.312500    288.000000
 -0.437500  0.312500  0.312500    288.000000
 -0.312500  0.312500  0.312500    288.000000
  0.437500  0.437500  0.312500    288.000000
 -0.437500  0.437500  0.312500    576.000000
 -0.312500  0.437500  0.312500    576.000000
 -0.437500 -0.437500  0.312500    288.000000
  0.437500  0.437500  0.437500     96.000000
 -0.437500  0.437500  0.437500    288.000000
 
 Following cartesian coordinates:
            Coordinates               Weight
  0.024172  0.013956  0.009868     96.000000
  0.072517 -0.013956 -0.009868    288.000000
  0.120861 -0.041868 -0.029605    288.000000
  0.169206 -0.069779 -0.049341    288.000000
 -0.169206  0.125603  0.088815    288.000000
 -0.120861  0.097691  0.069078    288.000000
 -0.072517  0.069779  0.049341    288.000000
 -0.024172  0.041868  0.029605    288.000000
  0.072517  0.041868 -0.029605    288.000000
  0.120861  0.013956 -0.049341    576.000000
  0.169206 -0.013956 -0.069078    576.000000
 -0.169206  0.181426  0.069078    576.000000
 -0.120861  0.153515  0.049341    576.000000
 -0.072517  0.125603  0.029605    576.000000
 -0.024172  0.097691  0.009868    576.000000
  0.120861  0.069779 -0.069078    288.000000
  0.169206  0.041868 -0.088815    576.000000
 -0.169206  0.237250  0.049341    576.000000
 -0.120861  0.209338  0.029605    576.000000
 -0.072517  0.181426  0.009868    576.000000
 -0.024172  0.153515 -0.009868    576.000000
  0.169206  0.097691 -0.108551    288.000000
 -0.169206  0.293073  0.029605    576.000000
 -0.120861  0.265162  0.009868    576.000000
 -0.072517  0.237250 -0.009868    576.000000
 -0.024172  0.209338 -0.029605    576.000000
 -0.169206 -0.097691  0.167761    288.000000
 -0.120861 -0.125603  0.148024    576.000000
 -0.072517 -0.153515  0.128288    576.000000
 -0.120861 -0.069779  0.128288    288.000000
 -0.072517 -0.097691  0.108551    576.000000
 -0.072517 -0.041868  0.088815    288.000000
  0.072517  0.041868  0.029605     96.000000
  0.120861  0.013956  0.009868    288.000000
  0.169206 -0.013956 -0.009868    288.000000
 -0.169206  0.181426  0.128288    288.000000
 -0.120861  0.153515  0.108551    288.000000
 -0.072517  0.125603  0.088815    288.000000
  0.120861  0.069779 -0.009868    288.000000
  0.169206  0.041868 -0.029605    576.000000
 -0.169206  0.237250  0.108551    576.000000
 -0.120861  0.209338  0.088815    576.000000
 -0.072517  0.181426  0.069078    576.000000
  0.169206  0.097691 -0.049341    288.000000
 -0.169206  0.293073  0.088815    576.000000
 -0.120861  0.265162  0.069078    576.000000
 -0.072517  0.237250  0.049341    576.000000
 -0.169206 -0.097691  0.226971    288.000000
 -0.120861 -0.125603  0.207234    576.000000
 -0.120861 -0.069779  0.187498    288.000000
  0.120861  0.069779  0.049341     96.000000
  0.169206  0.041868  0.029605    288.000000
 -0.169206  0.237250  0.167761    288.000000
 -0.120861  0.209338  0.148024    288.000000
  0.169206  0.097691  0.009868    288.000000
 -0.169206  0.293073  0.148024    576.000000
 -0.120861  0.265162  0.128288    576.000000
 -0.169206 -0.097691  0.286180    288.000000
  0.169206  0.097691  0.069078     96.000000
 -0.169206  0.293073  0.207234    288.000000
 


--------------------------------------------------------------------------------------------------------




 Dimension of arrays:
   k-points           NKPTS =     60   k-points in BZ     NKDIM =     60   number of bands    NBANDS=      9
   number of dos      NEDOS =    301   number of ions     NIONS =      1
   non local maximal  LDIM  =      6   non local SUM 2l+1 LMDIM =     18
   total plane-waves  NPLWV =   1728
   max r-space proj   IRMAX =      1   max aug-charges    IRDMAX=   7057
   dimension x,y,z NGX =    12 NGY =   12 NGZ =   12
   dimension x,y,z NGXF=    24 NGYF=   24 NGZF=   24
   support grid    NGXF=    24 NGYF=   24 NGZF=   24
   ions per type =               1
 NGX,Y,Z   is equivalent  to a cutoff of   7.72,  7.72,  7.72 a.u.
 NGXF,Y,Z  is equivalent  to a cutoff of  15.43, 15.43, 15.43 a.u.


 I would recommend the setting:
   dimension x,y,z NGX =    12 NGY =   12 NGZ =   12
 SYSTEM =  unknown system                          
 POSCAR =  Pd                                      

 Startparameter for this run:
   NWRITE =      2    write-flag & timer
   PREC   = normal    normal or accurate (medium, high low for compatibility)
   ISTART =      0    job   : 0-new  1-cont  2-samecut
   ICHARG =      2    charge: 1-file 2-atom 10-const
   ISPIN  =      1    spin polarized calculation?
   LNONCOLLINEAR =      F non collinear calculations
   LSORBIT =      F    spin-orbit coupling
   INIWAV =      1    electr: 0-lowe 1-rand  2-diag
   LASPH  =      F    aspherical Exc in radial PAW
   METAGGA=      F    non-selfconsistent MetaGGA calc.

 Electronic Relaxation 1
   ENCUT  =  350.0 eV  25.72 Ry    5.07 a.u.   3.94  3.94  3.94*2*pi/ulx,y,z
   ENINI  =  350.0     initial cutoff
   ENAUG  =  416.2 eV  augmentation charge cutoff
   NELM   =     60;   NELMIN=  2; NELMDL= -5     # of ELM steps 
   EDIFF  = 0.1E-03   stopping-criterion for ELM
   LREAL  =      F    real-space projection
   NLSPLINE    = F    spline interpolate recip. space projectors
   LCOMPAT=      F    compatible to vasp.4.4
   GGA_COMPAT  = T    GGA compatible to vasp.4.4-vasp.4.6
   LMAXPAW     = -100 max onsite density
   LMAXMIX     =    2 max onsite mixed and CHGCAR
   VOSKOWN=      0    Vosko Wilk Nusair interpolation
   ROPT   =    0.00000
 Ionic relaxation
   EDIFFG = 0.1E-02   stopping-criterion for IOM
   NSW    =     30    number of steps for IOM
   NBLOCK =      1;   KBLOCK =     30    inner block; outer block 
   IBRION =      2    ionic relax: 0-MD 1-quasi-New 2-CG
   NFREE  =      1    steps in history (QN), initial steepest desc. (CG)
   ISIF   =      2    stress and relaxation
   IWAVPR =     11    prediction:  0-non 1-charg 2-wave 3-comb
   ISYM   =      2    0-nonsym 1-usesym 2-fastsym
   LCORR  =      T    Harris-Foulkes like correction to forces

   POTIM  = 0.5000    time-step for ionic-motion
   TEIN   =    0.0    initial temperature
   TEBEG  =    0.0;   TEEND  =   0.0 temperature during run
   SMASS  =  -3.00    Nose mass-parameter (am)
   estimated Nose-frequenzy (Omega)   =  0.10E-29 period in steps =****** mass=  -0.153E-27a.u.
   SCALEE = 1.0000    scale energy and forces
   NPACO  =    256;   APACO  = 16.0  distance and # of slots for P.C.
   PSTRESS=    0.0 pullay stress

  Mass of Ions in am
   POMASS = 106.42
  Ionic Valenz
   ZVAL   =  10.00
  Atomic Wigner-Seitz radii
   RWIGS  =  -1.00
  virtual crystal weights 
   VCA    =   1.00
   NELECT =      10.0000    total number of electrons
   NUPDOWN=      -1.0000    fix difference up-down

 DOS related values:
   EMIN   =  10.00;   EMAX   =-10.00  energy-range for DOS
   EFERMI =   0.00
   ISMEAR =     1;   SIGMA  =   0.20  broadening in eV -4-tet -1-fermi 0-gaus

 Electronic relaxation 2 (details)
   IALGO  =     38    algorithm
   LDIAG  =      T    sub-space diagonalisation (order eigenvalues)
   LSUBROT=      F    optimize rotation matrix (better conditioning)
   TURBO    =      0    0=normal 1=particle mesh
   IRESTART =      0    0=no restart 2=restart with 2 vectors
   NREBOOT  =      0    no. of reboots
   NMIN     =      0    reboot dimension
   EREF     =   0.00    reference energy to select bands
   IMIX   =      4    mixing-type and parameters
     AMIX     =   0.40;   BMIX     =  1.00
     AMIX_MAG =   1.60;   BMIX_MAG =  1.00
     AMIN     =   0.10
     WC   =   100.;   INIMIX=   1;  MIXPRE=   1;  MAXMIX= -45

 Intra band minimization:
   WEIMIN = 0.0010     energy-eigenvalue tresh-hold
   EBREAK =  0.28E-05  absolut break condition
   DEPER  =   0.30     relativ break condition  

   TIME   =   0.40     timestep for ELM

  volume/ion in A,a.u.               =      12.22        82.48
  Fermi-wavevector in a.u.,A,eV,Ry     =   1.531149  2.893452 31.897721  2.344416
  Thomas-Fermi vector in A             =   2.638533
 
 Write flags
   LWAVE  =      T    write WAVECAR
   LCHARG =      T    write CHGCAR
   LVTOT  =      F    write LOCPOT, total local potential
   LVHAR  =      F    write LOCPOT, Hartree potential only
   LELF   =      F    write electronic localiz. function (ELF)
   LORBIT =      0    0 simple, 1 ext, 2 COOP (PROOUT)


 Dipole corrections
   LMONO  =      F    monopole corrections only (constant potential shift)
   LDIPOL =      F    correct potential (dipole corrections)
   IDIPOL =      0    1-x, 2-y, 3-z, 4-all directions 
   EPSILON=  1.0000000 bulk dielectric constant

 Exchange correlation treatment:
   GGA     =    --    GGA type
   LEXCH   =     8    internal setting for exchange type
   VOSKOWN=      0    Vosko Wilk Nusair interpolation
   LHFCALC =     F    Hartree Fock is set to
   LHFONE  =     F    Hartree Fock one center treatment
   AEXX    =    0.0000 exact exchange contribution

 Linear response parameters
   LEPSILON=     F    determine dielectric tensor
   LRPA    =     F    only Hartree local field effects (RPA)
   LNABLA  =     F    use nabla operator in PAW spheres
   LVEL    =     F    velocity operator in full k-point grid
   LINTERFAST=   F  fast interpolation
   KINTER  =     0    interpolate to denser k-point grid
   CSHIFT  =0.1000    complex shift for real part using Kramers Kronig
   OMEGAMAX=  -1.0    maximum frequency
   DEG_THRESHOLD= 0.2000000E-02 threshold for treating states as degnerate
   RTIME   =    0.100 relaxation time in fs

 Orbital magnetization related:
   ORBITALMAG=     F  switch on orbital magnetization
   LCHIMAG   =     F  perturbation theory with respect to B field
   DQ        =  0.001000  dq finite difference perturbation B field



--------------------------------------------------------------------------------------------------------


 conjugate gradient relaxation of ions
 charge density and potential will be updated during run
 non-spin polarized calculation
 Variant of blocked Davidson
 Davidson routine will perform the subspace rotation
 perform sub-space diagonalisation
    after iterative eigenvector-optimisation
 modified Broyden-mixing scheme, WC =      100.0
 initial mixing is a Kerker type mixing with AMIX =  0.4000 and BMIX =      1.0000
 Hartree-type preconditioning will be used
 using additional bands            4
 reciprocal scheme for non local part
 use partial core corrections
 calculate Harris-corrections to forces 
   (improved forces if not selfconsistent)
 use gradient corrections 
 use of overlap-Matrix (Vanderbilt PP)
 Methfessel and Paxton  Order N= 1 SIGMA  =   0.20


--------------------------------------------------------------------------------------------------------


  energy-cutoff  :      350.00
  volume of cell :       12.22
      direct lattice vectors                 reciprocal lattice vectors
     2.585606656  0.000000000  0.000000000     0.386756430 -0.223293929 -0.157892651
     1.292803328  2.239201048  0.000000000     0.000000000  0.446587858 -0.157892651
     1.292803328  0.746400349  2.111138994     0.000000000  0.000000000  0.473677954

  length of vectors
     2.585606656  2.585606656  2.585606656     0.473677954  0.473677954  0.473677954


 
 k-points in units of 2pi/SCALE and weight: KPOINTS created by Atomic Simulation Env
   0.02417228  0.01395587  0.00986829       0.004
   0.07251683 -0.01395587 -0.00986829       0.012
   0.12086138 -0.04186761 -0.02960487       0.012
   0.16920594 -0.06977935 -0.04934145       0.012
  -0.16920594  0.12560284  0.08881462       0.012
  -0.12086138  0.09769109  0.06907803       0.012
  -0.07251683  0.06977935  0.04934145       0.012
  -0.02417228  0.04186761  0.02960487       0.012
   0.07251683  0.04186761 -0.02960487       0.012
   0.12086138  0.01395587 -0.04934145       0.023
   0.16920594 -0.01395587 -0.06907803       0.023
  -0.16920594  0.18142632  0.06907803       0.023
  -0.12086138  0.15351458  0.04934145       0.023
  -0.07251683  0.12560284  0.02960487       0.023
  -0.02417228  0.09769109  0.00986829       0.023
   0.12086138  0.06977935 -0.06907803       0.012
   0.16920594  0.04186761 -0.08881462       0.023
  -0.16920594  0.23724980  0.04934145       0.023
  -0.12086138  0.20933806  0.02960487       0.023
  -0.07251683  0.18142632  0.00986829       0.023
  -0.02417228  0.15351458 -0.00986829       0.023
   0.16920594  0.09769109 -0.10855120       0.012
  -0.16920594  0.29307328  0.02960487       0.023
  -0.12086138  0.26516154  0.00986829       0.023
  -0.07251683  0.23724980 -0.00986829       0.023
  -0.02417228  0.20933806 -0.02960487       0.023
  -0.16920594 -0.09769109  0.16776094       0.012
  -0.12086138 -0.12560284  0.14802436       0.023
  -0.07251683 -0.15351458  0.12828778       0.023
  -0.12086138 -0.06977935  0.12828778       0.012
  -0.07251683 -0.09769109  0.10855120       0.023
  -0.07251683 -0.04186761  0.08881462       0.012
   0.07251683  0.04186761  0.02960487       0.004
   0.12086138  0.01395587  0.00986829       0.012
   0.16920594 -0.01395587 -0.00986829       0.012
  -0.16920594  0.18142632  0.12828778       0.012
  -0.12086138  0.15351458  0.10855120       0.012
  -0.07251683  0.12560284  0.08881462       0.012
   0.12086138  0.06977935 -0.00986829       0.012
   0.16920594  0.04186761 -0.02960487       0.023
  -0.16920594  0.23724980  0.10855120       0.023
  -0.12086138  0.20933806  0.08881462       0.023
  -0.07251683  0.18142632  0.06907803       0.023
   0.16920594  0.09769109 -0.04934145       0.012
  -0.16920594  0.29307328  0.08881462       0.023
  -0.12086138  0.26516154  0.06907803       0.023
  -0.07251683  0.23724980  0.04934145       0.023
  -0.16920594 -0.09769109  0.22697069       0.012
  -0.12086138 -0.12560284  0.20723410       0.023
  -0.12086138 -0.06977935  0.18749752       0.012
   0.12086138  0.06977935  0.04934145       0.004
   0.16920594  0.04186761  0.02960487       0.012
  -0.16920594  0.23724980  0.16776094       0.012
  -0.12086138  0.20933806  0.14802436       0.012
   0.16920594  0.09769109  0.00986829       0.012
  -0.16920594  0.29307328  0.14802436       0.023
  -0.12086138  0.26516154  0.12828778       0.023
  -0.16920594 -0.09769109  0.28618043       0.012
   0.16920594  0.09769109  0.06907803       0.004
  -0.16920594  0.29307328  0.20723410       0.012
 
 k-points in reciprocal lattice and weights: KPOINTS created by Atomic Simulation Env
   0.06250000  0.06250000  0.06250000       0.004
   0.18750000  0.06250000  0.06250000       0.012
   0.31250000  0.06250000  0.06250000       0.012
   0.43750000  0.06250000  0.06250000       0.012
  -0.43750000  0.06250000  0.06250000       0.012
  -0.31250000  0.06250000  0.06250000       0.012
  -0.18750000  0.06250000  0.06250000       0.012
  -0.06250000  0.06250000  0.06250000       0.012
   0.18750000  0.18750000  0.06250000       0.012
   0.31250000  0.18750000  0.06250000       0.023
   0.43750000  0.18750000  0.06250000       0.023
  -0.43750000  0.18750000  0.06250000       0.023
  -0.31250000  0.18750000  0.06250000       0.023
  -0.18750000  0.18750000  0.06250000       0.023
  -0.06250000  0.18750000  0.06250000       0.023
   0.31250000  0.31250000  0.06250000       0.012
   0.43750000  0.31250000  0.06250000       0.023
  -0.43750000  0.31250000  0.06250000       0.023
  -0.31250000  0.31250000  0.06250000       0.023
  -0.18750000  0.31250000  0.06250000       0.023
  -0.06250000  0.31250000  0.06250000       0.023
   0.43750000  0.43750000  0.06250000       0.012
  -0.43750000  0.43750000  0.06250000       0.023
  -0.31250000  0.43750000  0.06250000       0.023
  -0.18750000  0.43750000  0.06250000       0.023
  -0.06250000  0.43750000  0.06250000       0.023
  -0.43750000 -0.43750000  0.06250000       0.012
  -0.31250000 -0.43750000  0.06250000       0.023
  -0.18750000 -0.43750000  0.06250000       0.023
  -0.31250000 -0.31250000  0.06250000       0.012
  -0.18750000 -0.31250000  0.06250000       0.023
  -0.18750000 -0.18750000  0.06250000       0.012
   0.18750000  0.18750000  0.18750000       0.004
   0.31250000  0.18750000  0.18750000       0.012
   0.43750000  0.18750000  0.18750000       0.012
  -0.43750000  0.18750000  0.18750000       0.012
  -0.31250000  0.18750000  0.18750000       0.012
  -0.18750000  0.18750000  0.18750000       0.012
   0.31250000  0.31250000  0.18750000       0.012
   0.43750000  0.31250000  0.18750000       0.023
  -0.43750000  0.31250000  0.18750000       0.023
  -0.31250000  0.31250000  0.18750000       0.023
  -0.18750000  0.31250000  0.18750000       0.023
   0.43750000  0.43750000  0.18750000       0.012
  -0.43750000  0.43750000  0.18750000       0.023
  -0.31250000  0.43750000  0.18750000       0.023
  -0.18750000  0.43750000  0.18750000       0.023
  -0.43750000 -0.43750000  0.18750000       0.012
  -0.31250000 -0.43750000  0.18750000       0.023
  -0.31250000 -0.31250000  0.18750000       0.012
   0.31250000  0.31250000  0.31250000       0.004
   0.43750000  0.31250000  0.31250000       0.012
  -0.43750000  0.31250000  0.31250000       0.012
  -0.31250000  0.31250000  0.31250000       0.012
   0.43750000  0.43750000  0.31250000       0.012
  -0.43750000  0.43750000  0.31250000       0.023
  -0.31250000  0.43750000  0.31250000       0.023
  -0.43750000 -0.43750000  0.31250000       0.012
   0.43750000  0.43750000  0.43750000       0.004
  -0.43750000  0.43750000  0.43750000       0.012
 
 position of ions in fractional coordinates (direct lattice) 
   0.00000000  0.00000000  0.00000000
 
 position of ions in cartesian coordinates  (Angst):
   0.00000000  0.00000000  0.00000000
 


--------------------------------------------------------------------------------------------------------


 k-point  1 :   0.0625 0.0625 0.0625  plane waves:     172
 k-point  2 :   0.1875 0.0625 0.0625  plane waves:     174
 k-point  3 :   0.3125 0.0625 0.0625  plane waves:     180
 k-point  4 :   0.4375 0.0625 0.0625  plane waves:     180
 k-point  5 :  -0.4375 0.0625 0.0625  plane waves:     176
 k-point  6 :  -0.3125 0.0625 0.0625  plane waves:     179
 k-point  7 :  -0.1875 0.0625 0.0625  plane waves:     175
 k-point  8 :  -0.0625 0.0625 0.0625  plane waves:     174
 k-point  9 :   0.1875 0.1875 0.0625  plane waves:     174
 k-point 10 :   0.3125 0.1875 0.0625  plane waves:     179
 k-point 11 :   0.4375 0.1875 0.0625  plane waves:     182
 k-point 12 :  -0.4375 0.1875 0.0625  plane waves:     179
 k-point 13 :  -0.3125 0.1875 0.0625  plane waves:     178
 k-point 14 :  -0.1875 0.1875 0.0625  plane waves:     178
 k-point 15 :  -0.0625 0.1875 0.0625  plane waves:     175
 k-point 16 :   0.3125 0.3125 0.0625  plane waves:     179
 k-point 17 :   0.4375 0.3125 0.0625  plane waves:     184
 k-point 18 :  -0.4375 0.3125 0.0625  plane waves:     184
 k-point 19 :  -0.3125 0.3125 0.0625  plane waves:     181
 k-point 20 :  -0.1875 0.3125 0.0625  plane waves:     182
 k-point 21 :  -0.0625 0.3125 0.0625  plane waves:     182
 k-point 22 :   0.4375 0.4375 0.0625  plane waves:     185
 k-point 23 :  -0.4375 0.4375 0.0625  plane waves:     185
 k-point 24 :  -0.3125 0.4375 0.0625  plane waves:     183
 k-point 25 :  -0.1875 0.4375 0.0625  plane waves:     180
 k-point 26 :  -0.0625 0.4375 0.0625  plane waves:     179
 k-point 27 :  -0.4375-0.4375 0.0625  plane waves:     190
 k-point 28 :  -0.3125-0.4375 0.0625  plane waves:     185
 k-point 29 :  -0.1875-0.4375 0.0625  plane waves:     185
 k-point 30 :  -0.3125-0.3125 0.0625  plane waves:     183
 k-point 31 :  -0.1875-0.3125 0.0625  plane waves:     183
 k-point 32 :  -0.1875-0.1875 0.0625  plane waves:     176
 k-point 33 :   0.1875 0.1875 0.1875  plane waves:     172
 k-point 34 :   0.3125 0.1875 0.1875  plane waves:     180
 k-point 35 :   0.4375 0.1875 0.1875  plane waves:     180
 k-point 36 :  -0.4375 0.1875 0.1875  plane waves:     179
 k-point 37 :  -0.3125 0.1875 0.1875  plane waves:     178
 k-point 38 :  -0.1875 0.1875 0.1875  plane waves:     182
 k-point 39 :   0.3125 0.3125 0.1875  plane waves:     179
 k-point 40 :   0.4375 0.3125 0.1875  plane waves:     181
 k-point 41 :  -0.4375 0.3125 0.1875  plane waves:     184
 k-point 42 :  -0.3125 0.3125 0.1875  plane waves:     185
 k-point 43 :  -0.1875 0.3125 0.1875  plane waves:     185
 k-point 44 :   0.4375 0.4375 0.1875  plane waves:     182
 k-point 45 :  -0.4375 0.4375 0.1875  plane waves:     187
 k-point 46 :  -0.3125 0.4375 0.1875  plane waves:     188
 k-point 47 :  -0.1875 0.4375 0.1875  plane waves:     187
 k-point 48 :  -0.4375-0.4375 0.1875  plane waves:     185
 k-point 49 :  -0.3125-0.4375 0.1875  plane waves:     186
 k-point 50 :  -0.3125-0.3125 0.1875  plane waves:     186
 k-point 51 :   0.3125 0.3125 0.3125  plane waves:     183
 k-point 52 :   0.4375 0.3125 0.3125  plane waves:     180
 k-point 53 :  -0.4375 0.3125 0.3125  plane waves:     180
 k-point 54 :  -0.3125 0.3125 0.3125  plane waves:     185
 k-point 55 :   0.4375 0.4375 0.3125  plane waves:     180
 k-point 56 :  -0.4375 0.4375 0.3125  plane waves:     184
 k-point 57 :  -0.3125 0.4375 0.3125  plane waves:     185
 k-point 58 :  -0.4375-0.4375 0.3125  plane waves:     180
 k-point 59 :   0.4375 0.4375 0.4375  plane waves:     174
 k-point 60 :  -0.4375 0.4375 0.4375  plane waves:     180

 maximum number of plane-waves:       190
 maximum index in each direction: 
   IXMAX=    4   IYMAX=    4   IZMAX=    3
   IXMIN=   -4   IYMIN=   -4   IZMIN=   -4

 WARNING: aliasing errors must be expected set NGX to  18 to avoid them
 WARNING: aliasing errors must be expected set NGY to  18 to avoid them
 WARNING: aliasing errors must be expected set NGZ to  16 to avoid them
 aliasing errors are usually negligible using standard VASP settings
 and one can safely disregard these warnings

 total amount of memory used by VASP on root node    34227. kBytes
========================================================================

   base      :      30000. kBytes
   nonl-proj :       1644. kBytes
   grid      :        771. kBytes
   one-center:         15. kBytes
   wavefun   :       1797. kBytes
 
     INWAV:  cpu time    0.00: real time    0.00
 Broyden mixing: mesh for mixing (old mesh)
   NGX =  7   NGY =  7   NGZ =  7
  (NGX  = 24   NGY  = 24   NGZ  = 24)
  gives a total of    343 points

 initial charge density was supplied:
 charge density of overlapping atoms calculated
 number of electron      10.0000000 magnetization 
 keeping initial charge density in first step


--------------------------------------------------------------------------------------------------------


 Maximum index for augmentation-charges         6699 (set IRDMAX)


--------------------------------------------------------------------------------------------------------


 First call to EWALD:  gamma=   0.769
 Maximum number of real-space cells 3x 3x 3
 Maximum number of reciprocal cells 3x 3x 3

    FEWALD:  cpu time    0.00: real time    0.00


----------------------------------------- Iteration    1(   1)  ---------------------------------------


    POTLOK:  cpu time    0.01: real time    0.01
    SETDIJ:  cpu time    0.01: real time    0.01
     EDDAV:  cpu time    0.32: real time    0.32
       DOS:  cpu time    0.00: real time    0.00
    --------------------------------------------
      LOOP:  cpu time    0.35: real time    0.36

 eigenvalue-minimisations  :  1112
 total energy-change (2. order) : 0.2648165E+02  (-0.4256243E+03)
 number of electron      10.0000000 magnetization 
 augmentation part       10.0000000 magnetization 

 Free energy of the ion-electron system (eV)
  ---------------------------------------------------
  alpha Z        PSCENC =        53.32245860
  Ewald energy   TEWEN  =      -902.76538379
  -Hartree energ DENC   =      -102.91621739
  -exchange      EXHF   =         0.00000000
  -V(xc)+E(xc)   XCENC  =       -28.41041720
  PAW double counting   =       806.73831454     -744.51602449
  entropy T*S    EENTRO =         0.00136348
  eigenvalues    EBANDS =       135.30143179
  atomic energy  EATOM  =       809.72612850
  ---------------------------------------------------
  free energy    TOTEN  =        26.48165404 eV

  energy without entropy =       26.48029056  energy(sigma->0) =       26.48119955


--------------------------------------------------------------------------------------------------------




----------------------------------------- Iteration    1(   2)  ---------------------------------------


     EDDAV:  cpu time    0.33: real time    0.33
       DOS:  cpu time    0.00: real time    0.00
    --------------------------------------------
      LOOP:  cpu time    0.34: real time    0.34

 eigenvalue-minimisations  :  1162
 total energy-change (2. order) :-0.3124664E+02  (-0.3049795E+02)
 number of electron      10.0000000 magnetization 
 augmentation part       10.0000000 magnetization 

 Free energy of the ion-electron system (eV)
  ---------------------------------------------------
  alpha Z        PSCENC =        53.32245860
  Ewald energy   TEWEN  =      -902.76538379
  -Hartree energ DENC   =      -102.91621739
  -exchange      EXHF   =         0.00000000
  -V(xc)+E(xc)   XCENC  =       -28.41041720
  PAW double counting   =       806.73831454     -744.51602449
  entropy T*S    EENTRO =        -0.00830836
  eigenvalues    EBANDS =       104.06446145
  atomic energy  EATOM  =       809.72612850
  ---------------------------------------------------
  free energy    TOTEN  =        -4.76498813 eV

  energy without entropy =       -4.75667978  energy(sigma->0) =       -4.76221868


--------------------------------------------------------------------------------------------------------




----------------------------------------- Iteration    1(   3)  ---------------------------------------


     EDDAV:  cpu time    0.37: real time    0.38
       DOS:  cpu time    0.00: real time    0.00
    --------------------------------------------
      LOOP:  cpu time    0.38: real time    0.39

 eigenvalue-minimisations  :  1318
 total energy-change (2. order) :-0.2185479E+00  (-0.2182510E+00)
 number of electron      10.0000000 magnetization 
 augmentation part       10.0000000 magnetization 

 Free energy of the ion-electron system (eV)
  ---------------------------------------------------
  alpha Z        PSCENC =        53.32245860
  Ewald energy   TEWEN  =      -902.76538379
  -Hartree energ DENC   =      -102.91621739
  -exchange      EXHF   =         0.00000000
  -V(xc)+E(xc)   XCENC  =       -28.41041720
  PAW double counting   =       806.73831454     -744.51602449
  entropy T*S    EENTRO =        -0.00724852
  eigenvalues    EBANDS =       103.84485376
  atomic energy  EATOM  =       809.72612850
  ---------------------------------------------------
  free energy    TOTEN  =        -4.98353599 eV

  energy without entropy =       -4.97628747  energy(sigma->0) =       -4.98111982


--------------------------------------------------------------------------------------------------------




----------------------------------------- Iteration    1(   4)  ---------------------------------------


     EDDAV:  cpu time    0.36: real time    0.36
       DOS:  cpu time    0.00: real time    0.00
    --------------------------------------------
      LOOP:  cpu time    0.36: real time    0.38

 eigenvalue-minimisations  :  1271
 total energy-change (2. order) :-0.8319328E-03  (-0.8318903E-03)
 number of electron      10.0000000 magnetization 
 augmentation part       10.0000000 magnetization 

 Free energy of the ion-electron system (eV)
  ---------------------------------------------------
  alpha Z        PSCENC =        53.32245860
  Ewald energy   TEWEN  =      -902.76538379
  -Hartree energ DENC   =      -102.91621739
  -exchange      EXHF   =         0.00000000
  -V(xc)+E(xc)   XCENC  =       -28.41041720
  PAW double counting   =       806.73831454     -744.51602449
  entropy T*S    EENTRO =        -0.00724134
  eigenvalues    EBANDS =       103.84401465
  atomic energy  EATOM  =       809.72612850
  ---------------------------------------------------
  free energy    TOTEN  =        -4.98436792 eV

  energy without entropy =       -4.97712658  energy(sigma->0) =       -4.98195414


--------------------------------------------------------------------------------------------------------




----------------------------------------- Iteration    1(   5)  ---------------------------------------


     EDDAV:  cpu time    0.37: real time    0.37
       DOS:  cpu time    0.00: real time    0.00
    CHARGE:  cpu time    0.02: real time    0.03
    MIXING:  cpu time    0.00: real time    0.00
    --------------------------------------------
      LOOP:  cpu time    0.40: real time    0.42

 eigenvalue-minimisations  :  1316
 total energy-change (2. order) :-0.7502645E-05  (-0.7501419E-05)
 number of electron       9.9999950 magnetization 
 augmentation part        3.9832689 magnetization 

 Broyden mixing:
  rms(total) = 0.13520E+01    rms(broyden)= 0.13520E+01
  rms(prec ) = 0.19518E+01
  weight for this iteration     100.00

 Free energy of the ion-electron system (eV)
  ---------------------------------------------------
  alpha Z        PSCENC =        53.32245860
  Ewald energy   TEWEN  =      -902.76538379
  -Hartree energ DENC   =      -102.91621739
  -exchange      EXHF   =         0.00000000
  -V(xc)+E(xc)   XCENC  =       -28.41041720
  PAW double counting   =       806.73831454     -744.51602449
  entropy T*S    EENTRO =        -0.00724123
  eigenvalues    EBANDS =       103.84400704
  atomic energy  EATOM  =       809.72612850
  ---------------------------------------------------
  free energy    TOTEN  =        -4.98437542 eV

  energy without entropy =       -4.97713419  energy(sigma->0) =       -4.98196168


--------------------------------------------------------------------------------------------------------




----------------------------------------- Iteration    1(   6)  ---------------------------------------


    POTLOK:  cpu time    0.01: real time    0.01
    SETDIJ:  cpu time    0.01: real time    0.01
     EDDAV:  cpu time    0.32: real time    0.32
       DOS:  cpu time    0.00: real time    0.00
    CHARGE:  cpu time    0.02: real time    0.02
    MIXING:  cpu time    0.00: real time    0.00
    --------------------------------------------
      LOOP:  cpu time    0.37: real time    0.39

 eigenvalue-minimisations  :  1123
 total energy-change (2. order) : 0.2609191E+00  (-0.7771514E-01)
 number of electron       9.9999948 magnetization 
 augmentation part        4.1267614 magnetization 

 Broyden mixing:
  rms(total) = 0.69814E+00    rms(broyden)= 0.69814E+00
  rms(prec ) = 0.77750E+00
  weight for this iteration     100.00

 eigenvalues of (default mixing * dielectric matrix)
  average eigenvalue GAMMA=   1.9759
  1.9759

 Free energy of the ion-electron system (eV)
  ---------------------------------------------------
  alpha Z        PSCENC =        53.32245860
  Ewald energy   TEWEN  =      -902.76538379
  -Hartree energ DENC   =       -95.49514122
  -exchange      EXHF   =         0.00000000
  -V(xc)+E(xc)   XCENC  =       -28.59946837
  PAW double counting   =       930.19970552     -870.11549679
  entropy T*S    EENTRO =        -0.00314597
  eigenvalues    EBANDS =        99.00688722
  atomic energy  EATOM  =       809.72612850
  ---------------------------------------------------
  free energy    TOTEN  =        -4.72345630 eV

  energy without entropy =       -4.72031033  energy(sigma->0) =       -4.72240764


--------------------------------------------------------------------------------------------------------




----------------------------------------- Iteration    1(   7)  ---------------------------------------


    POTLOK:  cpu time    0.01: real time    0.01
    SETDIJ:  cpu time    0.01: real time    0.01
     EDDAV:  cpu time    0.41: real time    0.41
       DOS:  cpu time    0.00: real time    0.00
    CHARGE:  cpu time    0.02: real time    0.02
    MIXING:  cpu time    0.00: real time    0.00
    --------------------------------------------
      LOOP:  cpu time    0.47: real time    0.48

 eigenvalue-minimisations  :  1460
 total energy-change (2. order) : 0.3274615E-01  (-0.4951206E-02)
 number of electron       9.9999947 magnetization 
 augmentation part        4.1624204 magnetization 

 Broyden mixing:
  rms(total) = 0.26784E+00    rms(broyden)= 0.26784E+00
  rms(prec ) = 0.27011E+00
  weight for this iteration     100.00

 eigenvalues of (default mixing * dielectric matrix)
  average eigenvalue GAMMA=   1.8922
  1.1891  2.5953

 Free energy of the ion-electron system (eV)
  ---------------------------------------------------
  alpha Z        PSCENC =        53.32245860
  Ewald energy   TEWEN  =      -902.76538379
  -Hartree energ DENC   =       -92.90063705
  -exchange      EXHF   =         0.00000000
  -V(xc)+E(xc)   XCENC  =       -28.66122292
  PAW double counting   =      1042.64989506     -984.05185032
  entropy T*S    EENTRO =        -0.00329566
  eigenvalues    EBANDS =        97.99319743
  atomic energy  EATOM  =       809.72612850
  ---------------------------------------------------
  free energy    TOTEN  =        -4.69071015 eV

  energy without entropy =       -4.68741449  energy(sigma->0) =       -4.68961159


--------------------------------------------------------------------------------------------------------




----------------------------------------- Iteration    1(   8)  ---------------------------------------


    POTLOK:  cpu time    0.01: real time    0.01
    SETDIJ:  cpu time    0.01: real time    0.01
     EDDAV:  cpu time    0.35: real time    0.35
       DOS:  cpu time    0.00: real time    0.00
    CHARGE:  cpu time    0.02: real time    0.02
    MIXING:  cpu time    0.00: real time    0.00
    --------------------------------------------
      LOOP:  cpu time    0.40: real time    0.42

 eigenvalue-minimisations  :  1220
 total energy-change (2. order) : 0.5585640E-02  (-0.2922767E-03)
 number of electron       9.9999948 magnetization 
 augmentation part        4.1581743 magnetization 

 Broyden mixing:
  rms(total) = 0.14764E-01    rms(broyden)= 0.14764E-01
  rms(prec ) = 0.15648E-01
  weight for this iteration     100.00

 eigenvalues of (default mixing * dielectric matrix)
  average eigenvalue GAMMA=   1.5382
  2.5056  0.9225  1.1867

 Free energy of the ion-electron system (eV)
  ---------------------------------------------------
  alpha Z        PSCENC =        53.32245860
  Ewald energy   TEWEN  =      -902.76538379
  -Hartree energ DENC   =       -92.35272232
  -exchange      EXHF   =         0.00000000
  -V(xc)+E(xc)   XCENC  =       -28.67282992
  PAW double counting   =      1121.73675372    -1064.03259459
  entropy T*S    EENTRO =        -0.00330550
  eigenvalues    EBANDS =        98.35637079
  atomic energy  EATOM  =       809.72612850
  ---------------------------------------------------
  free energy    TOTEN  =        -4.68512451 eV

  energy without entropy =       -4.68181900  energy(sigma->0) =       -4.68402267


--------------------------------------------------------------------------------------------------------




----------------------------------------- Iteration    1(   9)  ---------------------------------------


    POTLOK:  cpu time    0.01: real time    0.01
    SETDIJ:  cpu time    0.01: real time    0.01
     EDDAV:  cpu time    0.23: real time    0.23
       DOS:  cpu time    0.00: real time    0.00
    --------------------------------------------
      LOOP:  cpu time    0.26: real time    0.27

 eigenvalue-minimisations  :   701
 total energy-change (2. order) : 0.1117659E-04  (-0.9925776E-06)
 number of electron       9.9999948 magnetization 
 augmentation part        4.1581743 magnetization 

 Free energy of the ion-electron system (eV)
  ---------------------------------------------------
  alpha Z        PSCENC =        53.32245860
  Ewald energy   TEWEN  =      -902.76538379
  -Hartree energ DENC   =       -92.40552150
  -exchange      EXHF   =         0.00000000
  -V(xc)+E(xc)   XCENC  =       -28.67149430
  PAW double counting   =      1118.11986310    -1060.34423219
  entropy T*S    EENTRO =        -0.00330613
  eigenvalues    EBANDS =        98.33637438
  atomic energy  EATOM  =       809.72612850
  ---------------------------------------------------
  free energy    TOTEN  =        -4.68511333 eV

  energy without entropy =       -4.68180720  energy(sigma->0) =       -4.68401129


--------------------------------------------------------------------------------------------------------




 average (electrostatic) potential at core
  the test charge radii are     1.1199
  (the norm of the test charge is              1.0000)
       1 -67.5348
 
 
 
 E-fermi :  13.3527     XC(G=0): -14.3935     alpha+bet :-20.1464


 k-point     1 :       0.0625    0.0625    0.0625
  band No.  band energies     occupation 
      1       4.7924      2.00000
      2       9.4310      2.00000
      3       9.5676      2.00000
      4       9.5676      2.00000
      5      11.6570      2.00000
      6      11.6570      2.00000
      7      30.6401      0.00000
      8      35.3419      0.00000
      9      36.5332      0.00000

 k-point     2 :       0.1875    0.0625    0.0625
  band No.  band energies     occupation 
      1       5.6162      2.00000
      2       9.1003      2.00000
      3       9.8463      2.00000
      4       9.8834      2.00000
      5      11.3328      2.00000
      6      11.8068      2.00000
      7      31.6432      0.00000
      8      32.8060      0.00000
      9      36.6253      0.00000

 k-point     3 :       0.3125    0.0625    0.0625
  band No.  band energies     occupation 
      1       6.7011      2.00000
      2       9.4568      2.00000
      3       9.8889      2.00000
      4       9.9422      2.00000
      5      11.6480      2.00000
      6      12.5475      2.00000
      7      28.7490      0.00000
      8      31.9828      0.00000
      9      37.6022      0.00000

 k-point     4 :       0.4375    0.0625    0.0625
  band No.  band energies     occupation 
      1       6.6128      2.00000
      2       9.4611      2.00000
      3       9.6209      2.00000
      4      11.6299      2.00000
      5      12.7316      2.00010
      6      14.0172     -0.00003
      7      24.3644      0.00000
      8      30.5235      0.00000
      9      35.9003      0.00000

 k-point     5 :      -0.4375    0.0625    0.0625
  band No.  band energies     occupation 
      1       6.4976      2.00000
      2       9.3097      2.00000
      3       9.5368      2.00000
      4      12.2892      2.00000
      5      13.3448      1.06691
      6      14.9653      0.00000
      7      22.4259      0.00000
      8      30.0468      0.00000
      9      35.8009      0.00000

 k-point     6 :      -0.3125    0.0625    0.0625
  band No.  band energies     occupation 
      1       6.6851      2.00000
      2       9.5311      2.00000
      3       9.7713      2.00000
      4      10.7950      2.00000
      5      12.9189      2.00892
      6      13.0517      2.05485
      7      25.7773      0.00000
      8      31.0033      0.00000
      9      36.7505      0.00000

 k-point     7 :      -0.1875    0.0625    0.0625
  band No.  band energies     occupation 
      1       6.4580      2.00000
      2       9.0858      2.00000
      3       9.9306      2.00000
      4      10.0169      2.00000
      5      11.5564      2.00000
      6      12.0750      2.00000
      7      30.1618      0.00000
      8      32.2797      0.00000
      9      37.5966      0.00000

 k-point     8 :      -0.0625    0.0625    0.0625
  band No.  band energies     occupation 
      1       5.2241      2.00000
      2       9.1827      2.00000
      3       9.7676      2.00000
      4       9.7759      2.00000
      5      11.3791      2.00000
      6      11.7829      2.00000
      7      31.2310      0.00000
      8      34.1471      0.00000
      9      36.5514      0.00000

 k-point     9 :       0.1875    0.1875    0.0625
  band No.  band energies     occupation 
      1       6.0000      2.00000
      2       8.7153      2.00000
      3      10.1405      2.00000
      4      10.1833      2.00000
      5      11.0151      2.00000
      6      12.0207      2.00000
      7      32.2583      0.00000
      8      33.1314      0.00000
      9      36.0676      0.00000

 k-point    10 :       0.3125    0.1875    0.0625
  band No.  band energies     occupation 
      1       7.0878      2.00000
      2       8.3289      2.00000
      3       9.8436      2.00000
      4      10.6839      2.00000
      5      11.5269      2.00000
      6      12.7273      2.00009
      7      30.6498      0.00000
      8      32.6282      0.00000
      9      35.3172      0.00000

 k-point    11 :       0.4375    0.1875    0.0625
  band No.  band energies     occupation 
      1       7.2229      2.00000
      2       8.9954      2.00000
      3       9.5674      2.00000
      4      10.4811      2.00000
      5      12.8528      2.00232
      6      14.7588      0.00000
      7      26.0699      0.00000
      8      31.4335      0.00000
      9      33.6190      0.00000

 k-point    12 :      -0.4375    0.1875    0.0625
  band No.  band energies     occupation 
      1       7.1055      2.00000
      2       8.7632      2.00000
      3      10.1625      2.00000
      4      10.6391      2.00000
      5      13.2436      1.78822
      6      17.3947      0.00000
      7      22.3163      0.00000
      8      30.6017      0.00000
      9      33.2014      0.00000

 k-point    13 :      -0.3125    0.1875    0.0625
  band No.  band energies     occupation 
      1       7.2838      2.00000
      2       8.9626      2.00000
      3      10.0009      2.00000
      4      10.3732      2.00000
      5      12.5644      2.00000
      6      15.9867      0.00000
      7      24.6526      0.00000
      8      30.6519      0.00000
      9      33.3113      0.00000

 k-point    14 :      -0.1875    0.1875    0.0625
  band No.  band energies     occupation 
      1       7.4602      2.00000
      2       8.6330      2.00000
      3       9.5625      2.00000
      4      10.6125      2.00000
      5      11.3095      2.00000
      6      13.6737     -0.04570
      7      29.1855      0.00000
      8      31.5140      0.00000
      9      35.2016      0.00000

 k-point    15 :      -0.0625    0.1875    0.0625
  band No.  band energies     occupation 
      1       6.3184      2.00000
      2       8.7787      2.00000
      3      10.0027      2.00000
      4      10.1760      2.00000
      5      11.1526      2.00000
      6      12.1613      2.00000
      7      31.5772      0.00000
      8      32.3707      0.00000
      9      36.3028      0.00000

 k-point    16 :       0.3125    0.3125    0.0625
  band No.  band energies     occupation 
      1       7.1404      2.00000
      2       7.5923      2.00000
      3      10.7619      2.00000
      4      11.4758      2.00000
      5      12.2480      2.00000
      6      12.7089      2.00005
      7      31.1768      0.00000
      8      32.5350      0.00000
      9      32.7377      0.00000

 k-point    17 :       0.4375    0.3125    0.0625
  band No.  band energies     occupation 
      1       7.1046      2.00000
      2       7.4127      2.00000
      3      10.6286      2.00000
      4      12.0396      2.00000
      5      12.9633      2.01888
      6      15.0463      0.00000
      7      28.1560      0.00000
      8      30.1972      0.00000
      9      30.8034      0.00000

 k-point    18 :      -0.4375    0.3125    0.0625
  band No.  band energies     occupation 
      1       7.1971      2.00000
      2       7.9767      2.00000
      3      10.1140      2.00000
      4      11.5293      2.00000
      5      13.3512      1.01261
      6      18.9943      0.00000
      7      23.4825      0.00000
      8      28.6441      0.00000
      9      30.6666      0.00000

 k-point    19 :      -0.3125    0.3125    0.0625
  band No.  band energies     occupation 
      1       7.7767      2.00000
      2       8.5641      2.00000
      3       9.3637      2.00000
      4      11.1697      2.00000
      5      12.6314      2.00000
      6      19.2531      0.00000
      7      24.1390      0.00000
      8      27.0161      0.00000
      9      32.4594      0.00000

 k-point    20 :      -0.1875    0.3125    0.0625
  band No.  band energies     occupation 
      1       8.0172      2.00000
      2       8.7785      2.00000
      3       9.0769      2.00000
      4      10.8552      2.00000
      5      11.8939      2.00000
      6      16.1978      0.00000
      7      26.6736      0.00000
      8      29.0472      0.00000
      9      33.3664      0.00000

 k-point    21 :      -0.0625    0.3125    0.0625
  band No.  band energies     occupation 
      1       6.9872      2.00000
      2       9.5136      2.00000
      3       9.6312      2.00000
      4      10.1065      2.00000
      5      12.1155      2.00000
      6      13.4222      0.44949
      7      27.4343      0.00000
      8      31.6969      0.00000
      9      35.6977      0.00000

 k-point    22 :       0.4375    0.4375    0.0625
  band No.  band energies     occupation 
      1       6.4485      2.00000
      2       6.7583      2.00000
      3      12.6910      2.00003
      4      12.8425      2.00184
      5      13.4263      0.42186
      6      15.5435      0.00000
      7      28.0067      0.00000
      8      28.4262      0.00000
      9      28.8445      0.00000

 k-point    23 :      -0.4375    0.4375    0.0625
  band No.  band energies     occupation 
      1       6.4878      2.00000
      2       6.8838      2.00000
      3      11.9957      2.00000
      4      12.7913      2.00053
      5      13.6603     -0.05187
      6      18.5071      0.00000
      7      25.8907      0.00000
      8      26.6271      0.00000
      9      28.0556      0.00000

 k-point    24 :      -0.3125    0.4375    0.0625
  band No.  band energies     occupation 
      1       7.0591      2.00000
      2       7.8114      2.00000
      3      10.4006      2.00000
      4      11.8947      2.00000
      5      13.2779      1.58672
      6      21.1574      0.00000
      7      22.7280      0.00000
      8      26.4452      0.00000
      9      30.2206      0.00000

 k-point    25 :      -0.1875    0.4375    0.0625
  band No.  band energies     occupation 
      1       7.5393      2.00000
      2       8.4633      2.00000
      3       9.9757      2.00000
      4      10.6860      2.00000
      5      12.9982      2.03099
      6      18.8794      0.00000
      7      22.4371      0.00000
      8      29.3922      0.00000
      9      32.4329      0.00000

 k-point    26 :      -0.0625    0.4375    0.0625
  band No.  band energies     occupation 
      1       6.7646      2.00000
      2       9.1588      2.00000
      3       9.7846      2.00000
      4      11.2753      2.00000
      5      13.1380      2.06235
      6      15.5193      0.00000
      7      23.1690      0.00000
      8      30.5075      0.00000
      9      34.6304      0.00000

 k-point    27 :      -0.4375   -0.4375    0.0625
  band No.  band energies     occupation 
      1       6.2052      2.00000
      2       6.5760      2.00000
      3      13.1558      2.04696
      4      13.2351      1.82930
      5      13.6914     -0.03769
      6      17.0374      0.00000
      7      26.4794      0.00000
      8      27.2128      0.00000
      9      27.9277      0.00000

 k-point    28 :      -0.3125   -0.4375    0.0625
  band No.  band energies     occupation 
      1       6.7275      2.00000
      2       7.0596      2.00000
      3      11.4211      2.00000
      4      12.6070      2.00000
      5      13.3781      0.78700
      6      16.9150      0.00000
      7      26.8013      0.00000
      8      28.4178      0.00000
      9      28.8362      0.00000

 k-point    29 :      -0.1875   -0.4375    0.0625
  band No.  band energies     occupation 
      1       7.3004      2.00000
      2       8.3813      2.00000
      3       9.7672      2.00000
      4      10.9957      2.00000
      5      13.2664      1.66080
      6      16.6967      0.00000
      7      24.6794      0.00000
      8      30.6888      0.00000
      9      31.7237      0.00000

 k-point    30 :      -0.3125   -0.3125    0.0625
  band No.  band energies     occupation 
      1       6.8458      2.00000
      2       7.1094      2.00000
      3      11.7648      2.00000
      4      12.2231      2.00000
      5      13.0787      2.06560
      6      13.7220     -0.02545
      7      29.5862      0.00000
      8      30.4783      0.00000
      9      30.7293      0.00000

 k-point    31 :      -0.1875   -0.3125    0.0625
  band No.  band energies     occupation 
      1       7.3813      2.00000
      2       7.8720      2.00000
      3       9.9418      2.00000
      4      11.3290      2.00000
      5      12.3186      2.00000
      6      13.5947     -0.07085
      7      29.5560      0.00000
      8      31.7287      0.00000
      9      33.1190      0.00000

 k-point    32 :      -0.1875   -0.1875    0.0625
  band No.  band energies     occupation 
      1       6.8362      2.00000
      2       8.1514      2.00000
      3      10.3022      2.00000
      4      10.7654      2.00000
      5      11.2679      2.00000
      6      12.3421      2.00000
      7      32.2292      0.00000
      8      33.4697      0.00000
      9      34.6105      0.00000

 k-point    33 :       0.1875    0.1875    0.1875
  band No.  band energies     occupation 
      1       5.9258      2.00000
      2       9.1727      2.00000
      3       9.8801      2.00000
      4       9.8801      2.00000
      5      11.6147      2.00000
      6      11.6147      2.00000
      7      31.3589      0.00000
      8      32.0174      0.00000
      9      38.2874      0.00000

 k-point    34 :       0.3125    0.1875    0.1875
  band No.  band energies     occupation 
      1       6.8688      2.00000
      2       8.7742      2.00000
      3       9.9047      2.00000
      4      10.2965      2.00000
      5      11.0274      2.00000
      6      12.7667      2.00027
      7      30.2987      0.00000
      8      32.1523      0.00000
      9      36.4706      0.00000

 k-point    35 :       0.4375    0.1875    0.1875
  band No.  band energies     occupation 
      1       7.7794      2.00000
      2       8.8468      2.00000
      3       9.4536      2.00000
      4      10.5185      2.00000
      5      11.3706      2.00000
      6      14.8330      0.00000
      7      27.9007      0.00000
      8      30.3020      0.00000
      9      34.4118      0.00000

 k-point    36 :      -0.4375    0.1875    0.1875
  band No.  band energies     occupation 
      1       7.3813      2.00000
      2       8.7722      2.00000
      3      10.2946      2.00000
      4      10.3024      2.00000
      5      12.6683      2.00001
      6      17.3364      0.00000
      7      23.4233      0.00000
      8      29.9240      0.00000
      9      33.4007      0.00000

 k-point    37 :      -0.3125    0.1875    0.1875
  band No.  band energies     occupation 
      1       7.1557      2.00000
      2       8.6785      2.00000
      3      10.1866      2.00000
      4      10.4306      2.00000
      5      13.4108      0.53054
      6      17.0685      0.00000
      7      23.1393      0.00000
      8      30.6213      0.00000
      9      33.6505      0.00000

 k-point    38 :      -0.1875    0.1875    0.1875
  band No.  band energies     occupation 
      1       7.2369      2.00000
      2       8.4281      2.00000
      3       9.7375      2.00000
      4      10.7486      2.00000
      5      13.0778      2.06531
      6      13.7107     -0.02966
      7      27.7310      0.00000
      8      32.1417      0.00000
      9      33.5603      0.00000

 k-point    39 :       0.3125    0.3125    0.1875
  band No.  band energies     occupation 
      1       7.0033      2.00000
      2       8.8499      2.00000
      3       9.7112      2.00000
      4      10.3047      2.00000
      5      12.2688      2.00000
      6      12.5990      2.00000
      7      29.0181      0.00000
      8      32.4640      0.00000
      9      35.7166      0.00000

 k-point    40 :       0.4375    0.3125    0.1875
  band No.  band energies     occupation 
      1       7.7420      2.00000
      2       8.4259      2.00000
      3       9.2073      2.00000
      4      11.1616      2.00000
      5      12.0078      2.00000
      6      14.8756      0.00000
      7      28.0155      0.00000
      8      30.4300      0.00000
      9      33.1617      0.00000

 k-point    41 :      -0.4375    0.3125    0.1875
  band No.  band energies     occupation 
      1       8.1574      2.00000
      2       8.3034      2.00000
      3       8.9728      2.00000
      4      11.3318      2.00000
      5      12.5747      2.00000
      6      17.8983      0.00000
      7      25.4572      0.00000
      8      27.9422      0.00000
      9      31.5196      0.00000

 k-point    42 :      -0.3125    0.3125    0.1875
  band No.  band energies     occupation 
      1       7.7311      2.00000
      2       8.1935      2.00000
      3       9.5335      2.00000
      4      11.1937      2.00000
      5      13.1839      2.00099
      6      20.0257      0.00000
      7      22.4538      0.00000
      8      29.1106      0.00000
      9      29.9095      0.00000

 k-point    43 :      -0.1875    0.3125    0.1875
  band No.  band energies     occupation 
      1       7.5696      2.00000
      2       7.9602      2.00000
      3       9.5510      2.00000
      4      11.7664      2.00000
      5      12.6966      2.00004
      6      16.5025      0.00000
      7      26.7358      0.00000
      8      29.1612      0.00000
      9      30.9919      0.00000

 k-point    44 :       0.4375    0.4375    0.1875
  band No.  band energies     occupation 
      1       7.1065      2.00000
      2       7.8660      2.00000
      3      10.3064      2.00000
      4      11.3138      2.00000
      5      13.4094      0.54115
      6      15.6269      0.00000
      7      26.2823      0.00000
      8      30.7130      0.00000
      9      31.7003      0.00000

 k-point    45 :      -0.4375    0.4375    0.1875
  band No.  band energies     occupation 
      1       7.2267      2.00000
      2       7.6131      2.00000
      3      10.1356      2.00000
      4      12.1233      2.00000
      5      13.2637      1.67680
      6      18.4979      0.00000
      7      25.5775      0.00000
      8      28.0238      0.00000
      9      28.6548      0.00000

 k-point    46 :      -0.3125    0.4375    0.1875
  band No.  band energies     occupation 
      1       7.4552      2.00000
      2       8.2694      2.00000
      3       9.3312      2.00000
      4      11.5883      2.00000
      5      13.6454     -0.05851
      6      22.1158      0.00000
      7      23.6681      0.00000
      8      26.2016      0.00000
      9      27.2166      0.00000

 k-point    47 :      -0.1875    0.4375    0.1875
  band No.  band energies     occupation 
      1       7.7348      2.00000
      2       8.2809      2.00000
      3       9.1302      2.00000
      4      11.5749      2.00000
      5      13.2161      1.90772
      6      19.9779      0.00000
      7      24.3608      0.00000
      8      27.1612      0.00000
      9      29.0359      0.00000

 k-point    48 :      -0.4375   -0.4375    0.1875
  band No.  band energies     occupation 
      1       6.6607      2.00000
      2       7.2461      2.00000
      3      11.4258      2.00000
      4      12.3991      2.00000
      5      13.4364      0.35579
      6      19.6145      0.00000
      7      24.1873      0.00000
      8      26.4863      0.00000
      9      29.6700      0.00000

 k-point    49 :      -0.3125   -0.4375    0.1875
  band No.  band energies     occupation 
      1       6.9811      2.00000
      2       7.4657      2.00000
      3      10.5948      2.00000
      4      12.1515      2.00000
      5      13.6487     -0.05709
      6      20.3283      0.00000
      7      24.8608      0.00000
      8      26.3858      0.00000
      9      27.6422      0.00000

 k-point    50 :      -0.3125   -0.3125    0.1875
  band No.  band energies     occupation 
      1       6.8495      2.00000
      2       7.4452      2.00000
      3      10.9819      2.00000
      4      11.9195      2.00000
      5      13.5185      0.00579
      6      17.7820      0.00000
      7      24.9752      0.00000
      8      28.4722      0.00000
      9      30.3645      0.00000

 k-point    51 :       0.3125    0.3125    0.3125
  band No.  band energies     occupation 
      1       6.6133      2.00000
      2       9.7500      2.00000
      3       9.7500      2.00000
      4      10.4759      2.00000
      5      12.3244      2.00000
      6      12.3244      2.00000
      7      27.1949      0.00000
      8      31.3902      0.00000
      9      39.0668      0.00000

 k-point    52 :       0.4375    0.3125    0.3125
  band No.  band energies     occupation 
      1       7.0813      2.00000
      2       9.3406      2.00000
      3       9.9941      2.00000
      4      10.2226      2.00000
      5      12.0688      2.00000
      6      14.5626      0.00000
      7      26.0043      0.00000
      8      31.0857      0.00000
      9      34.5800      0.00000

 k-point    53 :      -0.4375    0.3125    0.3125
  band No.  band energies     occupation 
      1       7.9463      2.00000
      2       8.7481      2.00000
      3       9.3631      2.00000
      4      10.8114      2.00000
      5      12.1297      2.00000
      6      17.6038      0.00000
      7      25.4235      0.00000
      8      27.8283      0.00000
      9      33.8428      0.00000

 k-point    54 :      -0.3125    0.3125    0.3125
  band No.  band energies     occupation 
      1       7.3174      2.00000
      2       8.3015      2.00000
      3       9.9470      2.00000
      4      11.4833      2.00000
      5      12.8760      2.00383
      6      20.7080      0.00000
      7      22.7186      0.00000
      8      26.5716      0.00000
      9      32.5820      0.00000

 k-point    55 :       0.4375    0.4375    0.3125
  band No.  band energies     occupation 
      1       6.8945      2.00000
      2       9.1406      2.00000
      3      10.0064      2.00000
      4      10.4750      2.00000
      5      13.3107      1.34701
      6      14.8482      0.00000
      7      24.4101      0.00000
      8      30.9591      0.00000
      9      34.9219      0.00000

 k-point    56 :      -0.4375    0.4375    0.3125
  band No.  band energies     occupation 
      1       7.5619      2.00000
      2       8.4708      2.00000
      3       9.7749      2.00000
      4      10.7569      2.00000
      5      13.0107      2.03623
      6      17.8454      0.00000
      7      23.3998      0.00000
      8      30.2187      0.00000
      9      31.6052      0.00000

 k-point    57 :      -0.3125    0.4375    0.3125
  band No.  band energies     occupation 
      1       7.6026      2.00000
      2       8.3339      2.00000
      3       9.3573      2.00000
      4      11.4693      2.00000
      5      13.2167      1.90566
      6      21.2659      0.00000
      7      22.9578      0.00000
      8      26.6066      0.00000
      9      29.7042      0.00000

 k-point    58 :      -0.4375   -0.4375    0.3125
  band No.  band energies     occupation 
      1       7.3172      2.00000
      2       8.3705      2.00000
      3      10.0172      2.00000
      4      10.9789      2.00000
      5      13.2135      1.91708
      6      19.4045      0.00000
      7      22.2399      0.00000
      8      28.8636      0.00000
      9      32.9056      0.00000

 k-point    59 :       0.4375    0.4375    0.4375
  band No.  band energies     occupation 
      1       6.4176      2.00000
      2       9.4633      2.00000
      3       9.4633      2.00000
      4      13.1956      1.97258
      5      13.1956      1.97258
      6      13.2891      1.50922
      7      23.1568      0.00000
      8      30.0207      0.00000
      9      36.5704      0.00000

 k-point    60 :      -0.4375    0.4375    0.4375
  band No.  band energies     occupation 
      1       6.8356      2.00000
      2       9.0370      2.00000
      3       9.8306      2.00000
      4      11.2923      2.00000
      5      13.1443      2.05796
      6      16.4674      0.00000
      7      22.3861      0.00000
      8      30.4272      0.00000
      9      34.2275      0.00000


--------------------------------------------------------------------------------------------------------


 soft charge-density along one line, spin component           1
         0         1         2         3         4         5         6         7         8         9
x     5.8418    0.0000    0.5566    0.0000   -0.2360    0.0000    0.0159    0.0000    0.0061    0.0000
x     0.0000    0.0000    0.0000    0.0000
y     5.8418    0.0000    0.5566    0.0000   -0.2360    0.0000    0.0159    0.0000    0.0061    0.0000
y     0.0000    0.0000    0.0000    0.0000
z     5.8418    0.0000    0.5566    0.0000   -0.2360    0.0000    0.0159    0.0000    0.0061    0.0000
z     0.0000    0.0000    0.0000    0.0000
 total charge-density along one line
x    10.0000    0.0000    3.1854    0.0000    0.2851    0.0000   -0.0096    0.0000    0.0079    0.0000
x    -0.0010    0.0000    0.0005    0.0000   -0.0002    0.0000    0.0001    0.0000   -0.0001    0.0000
x     0.0000    0.0000    0.0000    0.0000    0.0000    0.0000
y    10.0000    0.0000    3.1854    0.0000    0.2851    0.0000   -0.0096    0.0000    0.0079    0.0000
y    -0.0010    0.0000    0.0005    0.0000   -0.0002    0.0000    0.0001    0.0000   -0.0001    0.0000
y     0.0000    0.0000    0.0000    0.0000    0.0000    0.0000
z    10.0000    0.0000    3.1854    0.0000    0.2851    0.0000   -0.0096    0.0000    0.0079    0.0000
z    -0.0010    0.0000    0.0005    0.0000   -0.0002    0.0000    0.0001    0.0000   -0.0001    0.0000
z     0.0000    0.0000    0.0000    0.0000    0.0000    0.0000
 
 pseudopotential strength for first ion, spin component:           1
 -0.637   0.000   0.000  -0.016   0.000  -0.952   0.000   0.000
  0.000  -0.626   0.000   0.000  -0.016   0.000  -0.941   0.000
  0.000   0.000  -0.648   0.000   0.000   0.000   0.000  -0.963
 -0.016   0.000   0.000  -0.626   0.000  -0.015   0.000   0.000
  0.000  -0.016   0.000   0.000  -0.637   0.000  -0.015   0.000
 -0.952   0.000   0.000  -0.015   0.000  -1.230   0.000   0.000
  0.000  -0.941   0.000   0.000  -0.015   0.000  -1.220   0.000
  0.000   0.000  -0.963   0.000   0.000   0.000   0.000  -1.241
 -0.015   0.000   0.000  -0.941   0.000  -0.015   0.000   0.000
  0.000  -0.015   0.000   0.000  -0.952   0.000  -0.015   0.000
  0.000   0.000   0.000   0.000   0.000   0.000   0.000   0.000
  0.000   0.000   0.000   0.000   0.000   0.000   0.000   0.000
  0.000   0.000   0.000   0.000   0.000   0.000   0.000   0.000
  0.000   0.000   0.000   0.000   0.000   0.000   0.000   0.000
  0.000   0.000   0.000   0.000   0.000   0.000   0.000   0.000
  0.000   0.000   0.000   0.000   0.000   0.000   0.000   0.000
  0.000   0.000   0.000   0.000   0.000   0.000   0.000   0.000
  0.000   0.000   0.000   0.000   0.000   0.000   0.000   0.000
 total augmentation occupancy for first ion, spin component:           1
  4.500   0.000   0.000  -0.243   0.000  -3.455   0.000   0.000   0.004   0.000   0.000   0.000   0.000   0.000   0.000   0.000
  0.000   4.672   0.000   0.000  -0.243   0.000  -3.458   0.000   0.000   0.004   0.000   0.000   0.000   0.000   0.000   0.000
  0.000   0.000   4.328   0.000   0.000   0.000   0.000  -3.452   0.000   0.000   0.000   0.000   0.000   0.000   0.000   0.000
 -0.243   0.000   0.000   4.672   0.000   0.004   0.000   0.000  -3.458   0.000   0.000   0.000   0.000   0.000   0.000   0.000
  0.000  -0.243   0.000   0.000   4.500   0.000   0.004   0.000   0.000  -3.455   0.000   0.000   0.000   0.000   0.000   0.000
 -3.455   0.000   0.000   0.004   0.000   4.208   0.000   0.000   0.186   0.000   0.000   0.000   0.000   0.000   0.000   0.000
  0.000  -3.458   0.000   0.000   0.004   0.000   4.076   0.000   0.000   0.186   0.000   0.000   0.000   0.000   0.000   0.000
  0.000   0.000  -3.452   0.000   0.000   0.000   0.000   4.339   0.000   0.000   0.000   0.000   0.000   0.000   0.000   0.000
  0.004   0.000   0.000  -3.458   0.000   0.186   0.000   0.000   4.076   0.000   0.000   0.000   0.000   0.000   0.000   0.000
  0.000   0.004   0.000   0.000  -3.455   0.000   0.186   0.000   0.000   4.208   0.000   0.000   0.000   0.000   0.000   0.000
  0.000   0.000   0.000   0.000   0.000   0.000   0.000   0.000   0.000   0.000   2.701  -0.459   0.000   0.000   0.000   0.000
  0.000   0.000   0.000   0.000   0.000   0.000   0.000   0.000   0.000   0.000  -0.459   0.083   0.000   0.000   0.000   0.000
  0.000   0.000   0.000   0.000   0.000   0.000   0.000   0.000   0.000   0.000   0.000   0.000   0.371   0.000   0.000  -0.020
  0.000   0.000   0.000   0.000   0.000   0.000   0.000   0.000   0.000   0.000   0.000   0.000   0.000   0.371   0.000   0.000
  0.000   0.000   0.000   0.000   0.000   0.000   0.000   0.000   0.000   0.000   0.000   0.000   0.000   0.000   0.371   0.000
  0.000   0.000   0.000   0.000   0.000   0.000   0.000   0.000   0.000   0.000   0.000   0.000  -0.020   0.000   0.000   0.001
  0.000   0.000   0.000   0.000   0.000   0.000   0.000   0.000   0.000   0.000   0.000   0.000   0.000  -0.020   0.000   0.000
  0.000   0.000   0.000   0.000   0.000   0.000   0.000   0.000   0.000   0.000   0.000   0.000   0.000   0.000  -0.020   0.000


------------------------ aborting loop because EDIFF is reached ----------------------------------------


    CHARGE:  cpu time    0.02: real time    0.02
    FORLOC:  cpu time    0.00: real time    0.00
    FORNL :  cpu time    0.06: real time    0.06
    STRESS:  cpu time    0.19: real time    0.19
    FORCOR:  cpu time    0.01: real time    0.01
    FORHAR:  cpu time    0.00: real time    0.04
    MIXING:  cpu time    0.00: real time    0.00
    OFIELD:  cpu time    0.00: real time    0.00

  FORCE on cell =-STRESS in cart. coord.  units (eV):
  Direction    XX          YY          ZZ          XY          YZ          ZX
  --------------------------------------------------------------------------------------
  Alpha Z    53.32246    53.32246    53.32246
  Ewald    -300.92180  -300.92180  -300.92180     0.00000     0.00000     0.00000
  Hartree    30.81040    30.81040    30.81040     0.00000     0.00000     0.00000
  E(xc)     -53.52895   -53.52897   -53.52898     0.00002     0.00001     0.00001
  Local      59.62501    59.62481    59.62476     0.00018     0.00007     0.00013
  n-local     0.96399     2.89108     7.61875     0.38450    -0.48236     3.18337
  augment    73.69417    73.69430    73.69433    -0.00011    -0.00004    -0.00008
  Kinetic   136.70397   137.11057   141.27473     0.57423    -0.93634     2.59169
  Fock        0.00000     0.00000     0.00000     0.00000     0.00000     0.00000
  -------------------------------------------------------------------------------------
  Total       5.18890     5.18890     5.18890     0.00000     0.00000     0.00000
  in kB     680.16389   680.16389   680.16389     0.00000     0.00000     0.00000
  external pressure =      680.16 kB  Pullay stress =        0.00 kB


 VOLUME and BASIS-vectors are now :
 -----------------------------------------------------------------------------
  energy-cutoff  :      350.00
  volume of cell :       12.22
      direct lattice vectors                 reciprocal lattice vectors
     2.585606656  0.000000000  0.000000000     0.386756430 -0.223293929 -0.157892651
     1.292803328  2.239201048  0.000000000     0.000000000  0.446587858 -0.157892651
     1.292803328  0.746400349  2.111138994     0.000000000  0.000000000  0.473677954

  length of vectors
     2.585606656  2.585606656  2.585606656     0.473677954  0.473677954  0.473677954


 FORCES acting on ions
    electron-ion (+dipol)            ewald-force                    non-local-force                 convergence-correction
 -----------------------------------------------------------------------------------------------
   -.480E-13 -.375E-14 -.968E-14   -.193E-14 -.909E-15 -.696E-15   -.926E-22 -.662E-23 0.000E+00   -.320E-13 -.354E-13 -.169E-13
 -----------------------------------------------------------------------------------------------
   -.480E-13 -.375E-14 -.968E-14   -.193E-14 -.909E-15 -.696E-15   -.926E-22 -.662E-23 0.000E+00   -.320E-13 -.354E-13 -.169E-13
 
 
 POSITION                                       TOTAL-FORCE (eV/Angst)
 -----------------------------------------------------------------------------------
      0.00000      0.00000      0.00000         0.000000      0.000000      0.000000
 -----------------------------------------------------------------------------------
    total drift:                                0.000000      0.000000      0.000000


--------------------------------------------------------------------------------------------------------



  FREE ENERGIE OF THE ION-ELECTRON SYSTEM (eV)
  ---------------------------------------------------
  free  energy   TOTEN  =        -4.68511333 eV

  energy  without entropy=       -4.68180720  energy(sigma->0) =       -4.68401129
 


--------------------------------------------------------------------------------------------------------


    POTLOK:  cpu time    0.02: real time    0.02


--------------------------------------------------------------------------------------------------------


 stress matrix after NEB project (eV)
      5.18890      0.00000      0.00000
      0.00000      5.18890      0.00000
      0.00000      0.00000      5.18890
  FORCES: max atom, RMS     0.000000    0.000000
  FORCE total and by dimension    0.000000    0.000000
  Stress total and by dimension    8.987440    5.188901


--------------------------------------------------------------------------------------------------------


  
 reached required accuracy - stopping structural energy minimisation
 writing wavefunctions
     LOOP+:  cpu time    3.71: real time    3.93
    4ORBIT:  cpu time    0.00: real time    0.00

 total amount of memory used by VASP on root node    34227. kBytes
========================================================================

   base      :      30000. kBytes
   nonl-proj :       1644. kBytes
   grid      :        771. kBytes
   one-center:         15. kBytes
   wavefun   :       1797. kBytes
 
  
  
 General timing and accounting informations for this job:
 ========================================================
  
                  Total CPU time used (sec):        4.135
                            User time (sec):        3.991
                          System time (sec):        0.144
                         Elapsed time (sec):        4.444
  
                   Maximum memory used (kb):           0.
                   Average memory used (kb):           0.
  
                          Minor page faults:         4971
                          Major page faults:            0
                 Voluntary context switches:         4477
