<?xml version="1.0" encoding="ISO-8859-1"?>
<modeling>
 <generator>
  <i name="program" type="string">vasp </i>
  <i name="version" type="string">5.3.5  </i>
  <i name="subversion" type="string">31Mar14 (build Jan 09 2015 16:57:47) complex                          serial </i>
  <i name="platform" type="string">LinuxIFC </i>
  <i name="date" type="string">2015 03 24 </i>
  <i name="time" type="string">14:25:57 </i>
 </generator>
 <incar>
  <i type="string" name="PREC">normal</i>
  <i type="int" name="IBRION">     2</i>
  <i type="int" name="NSW">    30</i>
  <i type="int" name="ISIF">     2</i>
  <i name="ENCUT">    350.00000000</i>
 </incar>
 <kpoints>
  <generation param="Monkhorst-Pack">
   <v type="int" name="divisions">       8        8        8 </v>
   <v name="usershift">      0.00000000       0.00000000       0.00000000 </v>
   <v name="genvec1">      0.12500000       0.00000000       0.00000000 </v>
   <v name="genvec2">      0.00000000       0.12500000       0.00000000 </v>
   <v name="genvec3">      0.00000000       0.00000000       0.12500000 </v>
   <v name="shift">      0.50000000       0.50000000       0.50000000 </v>
  </generation>
  <varray name="kpointlist" >
   <v>       0.06250000       0.06250000       0.06250000 </v>
   <v>       0.18750000       0.06250000       0.06250000 </v>
   <v>       0.31250000       0.06250000       0.06250000 </v>
   <v>       0.43750000       0.06250000       0.06250000 </v>
   <v>      -0.43750000       0.06250000       0.06250000 </v>
   <v>      -0.31250000       0.06250000       0.06250000 </v>
   <v>      -0.18750000       0.06250000       0.06250000 </v>
   <v>      -0.06250000       0.06250000       0.06250000 </v>
   <v>       0.18750000       0.18750000       0.06250000 </v>
   <v>       0.31250000       0.18750000       0.06250000 </v>
   <v>       0.43750000       0.18750000       0.06250000 </v>
   <v>      -0.43750000       0.18750000       0.06250000 </v>
   <v>      -0.31250000       0.18750000       0.06250000 </v>
   <v>      -0.18750000       0.18750000       0.06250000 </v>
   <v>      -0.06250000       0.18750000       0.06250000 </v>
   <v>       0.31250000       0.31250000       0.06250000 </v>
   <v>       0.43750000       0.31250000       0.06250000 </v>
   <v>      -0.43750000       0.31250000       0.06250000 </v>
   <v>      -0.31250000       0.31250000       0.06250000 </v>
   <v>      -0.18750000       0.31250000       0.06250000 </v>
   <v>      -0.06250000       0.31250000       0.06250000 </v>
   <v>       0.43750000       0.43750000       0.06250000 </v>
   <v>      -0.43750000       0.43750000       0.06250000 </v>
   <v>      -0.31250000       0.43750000       0.06250000 </v>
   <v>      -0.18750000       0.43750000       0.06250000 </v>
   <v>      -0.06250000       0.43750000       0.06250000 </v>
   <v>      -0.43750000      -0.43750000       0.06250000 </v>
   <v>      -0.31250000      -0.43750000       0.06250000 </v>
   <v>      -0.18750000      -0.43750000       0.06250000 </v>
   <v>      -0.31250000      -0.31250000       0.06250000 </v>
   <v>      -0.18750000      -0.31250000       0.06250000 </v>
   <v>      -0.18750000      -0.18750000       0.06250000 </v>
   <v>       0.18750000       0.18750000       0.18750000 </v>
   <v>       0.31250000       0.18750000       0.18750000 </v>
   <v>       0.43750000       0.18750000       0.18750000 </v>
   <v>      -0.43750000       0.18750000       0.18750000 </v>
   <v>      -0.31250000       0.18750000       0.18750000 </v>
   <v>      -0.18750000       0.18750000       0.18750000 </v>
   <v>       0.31250000       0.31250000       0.18750000 </v>
   <v>       0.43750000       0.31250000       0.18750000 </v>
   <v>      -0.43750000       0.31250000       0.18750000 </v>
   <v>      -0.31250000       0.31250000       0.18750000 </v>
   <v>      -0.18750000       0.31250000       0.18750000 </v>
   <v>       0.43750000       0.43750000       0.18750000 </v>
   <v>      -0.43750000       0.43750000       0.18750000 </v>
   <v>      -0.31250000       0.43750000       0.18750000 </v>
   <v>      -0.18750000       0.43750000       0.18750000 </v>
   <v>      -0.43750000      -0.43750000       0.18750000 </v>
   <v>      -0.31250000      -0.43750000       0.18750000 </v>
   <v>      -0.31250000      -0.31250000       0.18750000 </v>
   <v>       0.31250000       0.31250000       0.31250000 </v>
   <v>       0.43750000       0.31250000       0.31250000 </v>
   <v>      -0.43750000       0.31250000       0.31250000 </v>
   <v>      -0.31250000       0.31250000       0.31250000 </v>
   <v>       0.43750000       0.43750000       0.31250000 </v>
   <v>      -0.43750000       0.43750000       0.31250000 </v>
   <v>      -0.31250000       0.43750000       0.31250000 </v>
   <v>      -0.43750000      -0.43750000       0.31250000 </v>
   <v>       0.43750000       0.43750000       0.43750000 </v>
   <v>      -0.43750000       0.43750000       0.43750000 </v>
  </varray>
  <varray name="weights" >
   <v>       0.00390625 </v>
   <v>       0.01171875 </v>
   <v>       0.01171875 </v>
   <v>       0.01171875 </v>
   <v>       0.01171875 </v>
   <v>       0.01171875 </v>
   <v>       0.01171875 </v>
   <v>       0.01171875 </v>
   <v>       0.01171875 </v>
   <v>       0.02343750 </v>
   <v>       0.02343750 </v>
   <v>       0.02343750 </v>
   <v>       0.02343750 </v>
   <v>       0.02343750 </v>
   <v>       0.02343750 </v>
   <v>       0.01171875 </v>
   <v>       0.02343750 </v>
   <v>       0.02343750 </v>
   <v>       0.02343750 </v>
   <v>       0.02343750 </v>
   <v>       0.02343750 </v>
   <v>       0.01171875 </v>
   <v>       0.02343750 </v>
   <v>       0.02343750 </v>
   <v>       0.02343750 </v>
   <v>       0.02343750 </v>
   <v>       0.01171875 </v>
   <v>       0.02343750 </v>
   <v>       0.02343750 </v>
   <v>       0.01171875 </v>
   <v>       0.02343750 </v>
   <v>       0.01171875 </v>
   <v>       0.00390625 </v>
   <v>       0.01171875 </v>
   <v>       0.01171875 </v>
   <v>       0.01171875 </v>
   <v>       0.01171875 </v>
   <v>       0.01171875 </v>
   <v>       0.01171875 </v>
   <v>       0.02343750 </v>
   <v>       0.02343750 </v>
   <v>       0.02343750 </v>
   <v>       0.02343750 </v>
   <v>       0.01171875 </v>
   <v>       0.02343750 </v>
   <v>       0.02343750 </v>
   <v>       0.02343750 </v>
   <v>       0.01171875 </v>
   <v>       0.02343750 </v>
   <v>       0.01171875 </v>
   <v>       0.00390625 </v>
   <v>       0.01171875 </v>
   <v>       0.01171875 </v>
   <v>       0.01171875 </v>
   <v>       0.01171875 </v>
   <v>       0.02343750 </v>
   <v>       0.02343750 </v>
   <v>       0.01171875 </v>
   <v>       0.00390625 </v>
   <v>       0.01171875 </v>
  </varray>
 </kpoints>
 <parameters>
  <separator name="general" >
   <i type="string" name="SYSTEM">unknown system</i>
   <i type="logical" name="LCOMPAT"> F  </i>
  </separator>
  <separator name="electronic" >
   <i type="string" name="PREC">normal</i>
   <i name="ENMAX">    350.00000000</i>
   <i name="ENAUG">    416.23000000</i>
   <i name="EDIFF">      0.00010000</i>
   <i type="int" name="IALGO">    38</i>
   <i type="int" name="IWAVPR">    11</i>
   <i type="int" name="NBANDS">     9</i>
   <i name="NELECT">     10.00000000</i>
   <i type="int" name="TURBO">     0</i>
   <i type="int" name="IRESTART">     0</i>
   <i type="int" name="NREBOOT">     0</i>
   <i type="int" name="NMIN">     0</i>
   <i name="EREF">      0.00000000</i>
   <separator name="electronic smearing" >
    <i type="int" name="ISMEAR">     1</i>
    <i name="SIGMA">      0.20000000</i>
    <i name="KSPACING">      0.50000000</i>
    <i type="logical" name="KGAMMA"> T  </i>
   </separator>
   <separator name="electronic projectors" >
    <i type="logical" name="LREAL"> F  </i>
    <v name="ROPT">      0.00000000</v>
    <i type="int" name="LMAXPAW">  -100</i>
    <i type="int" name="LMAXMIX">     2</i>
    <i type="logical" name="NLSPLINE"> F  </i>
   </separator>
   <separator name="electronic startup" >
    <i type="int" name="ISTART">     0</i>
    <i type="int" name="ICHARG">     2</i>
    <i type="int" name="INIWAV">     1</i>
   </separator>
   <separator name="electronic spin" >
    <i type="int" name="ISPIN">     1</i>
    <i type="logical" name="LNONCOLLINEAR"> F  </i>
    <v name="MAGMOM">      1.00000000</v>
    <i name="NUPDOWN">     -1.00000000</i>
    <i type="logical" name="LSORBIT"> F  </i>
    <v name="SAXIS">      0.00000000      0.00000000      1.00000000</v>
    <i type="logical" name="LSPIRAL"> F  </i>
    <v name="QSPIRAL">      0.00000000      0.00000000      0.00000000</v>
    <i type="logical" name="LZEROZ"> F  </i>
   </separator>
   <separator name="electronic exchange-correlation" >
    <i type="logical" name="LASPH"> F  </i>
    <i type="logical" name="LMETAGGA"> F  </i>
   </separator>
   <separator name="electronic convergence" >
    <i type="int" name="NELM">    60</i>
    <i type="int" name="NELMDL">    -5</i>
    <i type="int" name="NELMIN">     2</i>
    <i name="ENINI">    350.00000000</i>
    <separator name="electronic convergence detail" >
     <i type="logical" name="LDIAG"> T  </i>
     <i type="logical" name="LSUBROT"> F  </i>
     <i name="WEIMIN">      0.00100000</i>
     <i name="EBREAK">      0.00000278</i>
     <i name="DEPER">      0.30000000</i>
     <i type="int" name="NRMM">     4</i>
     <i name="TIME">      0.40000000</i>
    </separator>
   </separator>
   <separator name="electronic mixer" >
    <i name="AMIX">      0.40000000</i>
    <i name="BMIX">      1.00000000</i>
    <i name="AMIN">      0.10000000</i>
    <i name="AMIX_MAG">      1.60000000</i>
    <i name="BMIX_MAG">      1.00000000</i>
    <separator name="electronic mixer details" >
     <i type="int" name="IMIX">     4</i>
     <i type="int" name="MAXMIX">   -45</i>
     <i name="WC">    100.00000000</i>
     <i type="int" name="INIMIX">     1</i>
     <i type="int" name="MIXPRE">     1</i>
     <i type="int" name="MREMOVE">     5</i>
    </separator>
   </separator>
   <separator name="electronic dipolcorrection" >
    <i type="logical" name="LDIPOL"> F  </i>
    <i type="logical" name="LMONO"> F  </i>
    <i type="int" name="IDIPOL">     0</i>
    <i name="EPSILON">      1.00000000</i>
    <v name="DIPOL">   -100.00000000   -100.00000000   -100.00000000</v>
    <i name="EFIELD">      0.00000000</i>
   </separator>
  </separator>
  <separator name="grids" >
   <i type="int" name="NGX">    12</i>
   <i type="int" name="NGY">    12</i>
   <i type="int" name="NGZ">    12</i>
   <i type="int" name="NGXF">    24</i>
   <i type="int" name="NGYF">    24</i>
   <i type="int" name="NGZF">    24</i>
   <i type="logical" name="ADDGRID"> F  </i>
  </separator>
  <separator name="ionic" >
   <i type="int" name="NSW">    30</i>
   <i type="int" name="IBRION">     2</i>
   <i type="int" name="ISIF">     2</i>
   <i name="PSTRESS">      0.00000000</i>
   <i name="EDIFFG">      0.00100000</i>
   <i type="int" name="NFREE">     1</i>
   <i name="POTIM">      0.50000000</i>
   <i name="SMASS">     -3.00000000</i>
   <i name="SCALEE">      1.00000000</i>
  </separator>
  <separator name="ionic md" >
   <i name="TEBEG">      0.00010000</i>
   <i name="TEEND">      0.00010000</i>
   <i type="int" name="NBLOCK">     1</i>
   <i type="int" name="KBLOCK">    30</i>
   <i type="int" name="NPACO">   256</i>
   <i name="APACO">     16.00000000</i>
  </separator>
  <separator name="symmetry" >
   <i type="int" name="ISYM">     2</i>
   <i name="SYMPREC">      0.00001000</i>
  </separator>
  <separator name="dos" >
   <i type="logical" name="LORBIT"> F  </i>
   <v name="RWIGS">     -1.00000000</v>
   <i type="int" name="NEDOS">   301</i>
   <i name="EMIN">     10.00000000</i>
   <i name="EMAX">    -10.00000000</i>
   <i name="EFERMI">      0.00000000</i>
  </separator>
  <separator name="writing" >
   <i type="int" name="NWRITE">     2</i>
   <i type="logical" name="LWAVE"> T  </i>
   <i type="logical" name="LCHARG"> T  </i>
   <i type="logical" name="LPARD"> F  </i>
   <i type="logical" name="LVTOT"> F  </i>
   <i type="logical" name="LVHAR"> F  </i>
   <i type="logical" name="LELF"> F  </i>
   <i type="logical" name="LOPTICS"> F  </i>
   <v name="STM">      0.00000000      0.00000000      0.00000000      0.00000000      0.00000000      0.00000000      0.00000000</v>
  </separator>
  <separator name="performance" >
   <i type="int" name="NPAR">     1</i>
   <i type="int" name="NSIM">     4</i>
   <i type="int" name="NBLK">    -1</i>
   <i type="logical" name="LPLANE"> T  </i>
   <i type="logical" name="LSCALAPACK"> F  </i>
   <i type="logical" name="LSCAAWARE"> F  </i>
   <i type="logical" name="LSCALU"> F  </i>
   <i type="logical" name="LASYNC"> F  </i>
   <i type="logical" name="LORBITALREAL"> F  </i>
  </separator>
  <separator name="miscellaneous" >
   <i type="int" name="IDIOT">     3</i>
   <i type="logical" name="LMUSIC"> F  </i>
   <v name="POMASS">    106.42000000</v>
   <v name="DARWINR">      0.00000000</v>
   <v name="DARWINV">      1.00000000</v>
   <i type="logical" name="LCORR"> T  </i>
  </separator>
  <i type="logical" name="GGA_COMPAT"> T  </i>
  <i type="logical" name="LBERRY"> F  </i>
  <i type="int" name="ICORELEVEL">     0</i>
  <i type="logical" name="LDAU"> F  </i>
  <i type="int" name="I_CONSTRAINED_M">     0</i>
  <separator name="electronic exchange-correlation" >
   <i type="string" name="GGA">--</i>
   <i type="int" name="VOSKOWN">     0</i>
   <i type="logical" name="LHFCALC"> F  </i>
   <i type="string" name="PRECFOCK"></i>
   <i type="logical" name="LSYMGRAD"> F  </i>
   <i type="logical" name="LHFONE"> F  </i>
   <i type="logical" name="LRHFCALC"> F  </i>
   <i type="logical" name="LTHOMAS"> F  </i>
   <i type="logical" name="LMODELHF"> F  </i>
   <i name="ENCUT4O">     -1.00000000</i>
   <i type="int" name="EXXOEP">     0</i>
   <i type="int" name="FOURORBIT">     0</i>
   <i name="AEXX">      0.00000000</i>
   <i name="HFALPHA">      0.00000000</i>
   <i name="MCALPHA">      0.00000000</i>
   <i name="ALDAX">      1.00000000</i>
   <i name="AGGAX">      1.00000000</i>
   <i name="ALDAC">      1.00000000</i>
   <i name="AGGAC">      1.00000000</i>
   <i type="int" name="NKREDX">     1</i>
   <i type="int" name="NKREDY">     1</i>
   <i type="int" name="NKREDZ">     1</i>
   <i type="logical" name="SHIFTRED"> F  </i>
   <i type="logical" name="ODDONLY"> F  </i>
   <i type="logical" name="EVENONLY"> F  </i>
   <i type="int" name="LMAXFOCK">     0</i>
   <i type="int" name="NMAXFOCKAE">     0</i>
   <i type="logical" name="LFOCKAEDFT"> F  </i>
   <i name="HFSCREEN">      0.00000000</i>
   <i name="HFSCREENC">      0.00000000</i>
   <i type="int" name="NBANDSGWLOW">     0</i>
  </separator>
  <separator name="vdW DFT" >
   <i type="logical" name="LUSE_VDW"> F  </i>
   <i name="Zab_VDW">     -0.84910000</i>
   <i name="PARAM1">      0.12340000</i>
   <i name="PARAM2">      1.00000000</i>
   <i name="PARAM3">      0.00000000</i>
  </separator>
  <separator name="model GW" >
   <i type="int" name="MODEL_GW">     0</i>
   <i name="MODEL_EPS0">      7.33370817</i>
   <i name="MODEL_ALPHA">      1.00000000</i>
  </separator>
  <separator name="linear response parameters" >
   <i type="logical" name="LEPSILON"> F  </i>
   <i type="logical" name="LRPA"> F  </i>
   <i type="logical" name="LNABLA"> F  </i>
   <i type="logical" name="LVEL"> F  </i>
   <i type="int" name="KINTER">     0</i>
   <i name="CSHIFT">      0.10000000</i>
   <i name="OMEGAMAX">     -1.00000000</i>
   <i name="DEG_THRESHOLD">      0.00200000</i>
  </separator>
  <separator name="orbital magnetization" >
   <i type="logical" name="NUCIND"> F  </i>
   <v name="MAGPOS">      0.00000000      0.00000000      0.00000000</v>
   <i type="logical" name="LNICSALL"> T  </i>
   <i type="logical" name="ORBITALMAG"> F  </i>
   <i type="logical" name="LMAGBLOCH"> F  </i>
   <i type="logical" name="LCHIMAG"> F  </i>
   <i type="logical" name="LGAUGE"> T  </i>
   <i type="int" name="MAGATOM">     0</i>
   <v name="MAGDIPOL">      0.00000000      0.00000000      0.00000000</v>
   <v name="AVECCONST">      0.00000000      0.00000000      0.00000000</v>
  </separator>
  <separator name="response functions" >
   <i type="logical" name="LADDER"> F  </i>
   <i type="logical" name="LFXC"> F  </i>
   <i type="logical" name="LHARTREE"> T  </i>
   <i type="int" name="IBSE">     0</i>
   <i type="logical" name="LTCTE"> F  </i>
   <i type="logical" name="LTETE"> F  </i>
   <i type="logical" name="LTRIPLET"> F  </i>
   <i type="logical" name="LFXCEPS"> F  </i>
   <i type="logical" name="LFXHEG"> F  </i>
   <i type="logical" name="L2ORDER"> F  </i>
   <i type="logical" name="LUSEW"> F  </i>
   <i name="ENCUTGW">     -2.00000000</i>
   <i name="ENCUTGWSOFT">     -2.00000000</i>
   <i name="ENCUTLF">     -1.00000000</i>
   <i type="int" name="LMAXMP2">    -1</i>
   <i name="SCISSOR">      0.00000000</i>
   <i type="int" name="NOMEGA">     0</i>
   <i type="int" name="NOMEGAR">     0</i>
   <i type="int" name="NBANDSGW">    -1</i>
   <i type="int" name="NBANDSO">    -1</i>
   <i type="int" name="NBANDSV">    -1</i>
   <i type="int" name="NELM">     1</i>
   <i type="int" name="DIM">     3</i>
   <i type="int" name="ANTIRES">     0</i>
   <i name="OMEGAMAX">    -30.00000000</i>
   <i name="OMEGAMIN">    -30.00000000</i>
   <i name="OMEGATL">   -200.00000000</i>
   <i type="int" name="OMEGAGRID">     0</i>
   <i name="CSHIFT">     -0.10000000</i>
   <i type="logical" name="SELFENERGY"> F  </i>
   <i type="logical" name="LSPECTRAL"> F  </i>
   <i type="logical" name="ODDONLYGW"> F  </i>
   <i type="logical" name="EVENONLYGW"> F  </i>
   <i type="int" name="NKREDLFX">     1</i>
   <i type="int" name="NKREDLFY">     1</i>
   <i type="int" name="NKREDLFZ">     1</i>
   <i type="int" name="MAXMEM">  1800</i>
   <i type="int" name="TELESCOPE">     0</i>
   <i type="int" name="TAUPAR">     1</i>
  </separator>
  <separator name="External order field" >
   <i name="OFIELD_KAPPA">      0.00000000</i>
   <v name="OFIELD_K">      0.00000000      0.00000000      0.00000000</v>
   <i name="OFIELD_Q6_NEAR">      0.00000000</i>
   <i name="OFIELD_Q6_FAR">      0.00000000</i>
   <i name="OFIELD_A">      0.00000000</i>
  </separator>
 </parameters>
 <atominfo>
  <atoms>       1 </atoms>
  <types>       1 </types>
  <array name="atoms" >
   <dimension dim="1">ion</dimension>
   <field type="string">element</field>
   <field type="int">atomtype</field>
   <set>
    <rc><c>Pd</c><c>   1</c></rc>
   </set>
  </array>
  <array name="atomtypes" >
   <dimension dim="1">type</dimension>
   <field type="int">atomspertype</field>
   <field type="string">element</field>
   <field>mass</field>
   <field>valence</field>
   <field type="string">pseudopotential</field>
   <set>
    <rc><c>   1</c><c>Pd</c><c>    106.42000000</c><c>     10.00000000</c><c>  PAW_PBE Pd 04Jan2005                  </c></rc>
   </set>
  </array>
 </atominfo>
 <structure name="initialpos" >
  <crystal>
   <varray name="basis" >
    <v>       2.58560666       0.00000000       0.00000000 </v>
    <v>       1.29280333       2.23920105       0.00000000 </v>
    <v>       1.29280333       0.74640035       2.11113899 </v>
   </varray>
   <i name="volume">     12.22284694 </i>
   <varray name="rec_basis" >
    <v>       0.38675643      -0.22329393      -0.15789265 </v>
    <v>       0.00000000       0.44658786      -0.15789265 </v>
    <v>       0.00000000       0.00000000       0.47367795 </v>
   </varray>
  </crystal>
  <varray name="positions" >
   <v>       0.00000000       0.00000000       0.00000000 </v>
  </varray>
 </structure>
 <calculation>
  <scstep>
   <time name="dav">    0.32    0.32</time>
   <time name="total">    0.35    0.36</time>
   <energy>
    <i name="alphaZ">     53.32245860 </i>
    <i name="ewald">   -902.76538379 </i>
    <i name="hartreedc">   -102.91621739 </i>
    <i name="XCdc">    -28.41041720 </i>
    <i name="pawpsdc">    806.73831454 </i>
    <i name="pawaedc">   -744.51602449 </i>
    <i name="eentropy">      0.00136348 </i>
    <i name="bandstr">    135.30143179 </i>
    <i name="atom">    809.72612850 </i>
    <i name="e_fr_energy">     26.48165404 </i>
    <i name="e_wo_entrp">     26.48029056 </i>
    <i name="e_0_energy">     26.48119955 </i>
   </energy>
  </scstep>
  <scstep>
   <time name="dav">    0.33    0.33</time>
   <time name="total">    0.34    0.34</time>
   <energy>
    <i name="e_fr_energy">     -4.76498813 </i>
    <i name="e_wo_entrp">     -4.75667978 </i>
    <i name="e_0_energy">     -4.76221868 </i>
   </energy>
  </scstep>
  <scstep>
   <time name="dav">    0.37    0.38</time>
   <time name="total">    0.38    0.39</time>
   <energy>
    <i name="e_fr_energy">     -4.98353599 </i>
    <i name="e_wo_entrp">     -4.97628747 </i>
    <i name="e_0_energy">     -4.98111982 </i>
   </energy>
  </scstep>
  <scstep>
   <time name="dav">    0.36    0.36</time>
   <time name="total">    0.36    0.38</time>
   <energy>
    <i name="e_fr_energy">     -4.98436792 </i>
    <i name="e_wo_entrp">     -4.97712658 </i>
    <i name="e_0_energy">     -4.98195414 </i>
   </energy>
  </scstep>
  <scstep>
   <time name="dav">    0.37    0.37</time>
   <time name="total">    0.40    0.42</time>
   <energy>
    <i name="e_fr_energy">     -4.98437542 </i>
    <i name="e_wo_entrp">     -4.97713419 </i>
    <i name="e_0_energy">     -4.98196168 </i>
   </energy>
  </scstep>
  <scstep>
   <time name="dav">    0.32    0.32</time>
   <time name="total">    0.37    0.39</time>
   <energy>
    <i name="e_fr_energy">     -4.72345630 </i>
    <i name="e_wo_entrp">     -4.72031033 </i>
    <i name="e_0_energy">     -4.72240764 </i>
   </energy>
  </scstep>
  <scstep>
   <time name="dav">    0.41    0.41</time>
   <time name="total">    0.47    0.48</time>
   <energy>
    <i name="e_fr_energy">     -4.69071015 </i>
    <i name="e_wo_entrp">     -4.68741449 </i>
    <i name="e_0_energy">     -4.68961159 </i>
   </energy>
  </scstep>
  <scstep>
   <time name="dav">    0.35    0.35</time>
   <time name="total">    0.40    0.42</time>
   <energy>
    <i name="e_fr_energy">     -4.68512451 </i>
    <i name="e_wo_entrp">     -4.68181900 </i>
    <i name="e_0_energy">     -4.68402267 </i>
   </energy>
  </scstep>
  <scstep>
   <time name="dav">    0.23    0.23</time>
   <time name="total">    0.26    0.27</time>
   <energy>
    <i name="alphaZ">     53.32245860 </i>
    <i name="ewald">   -902.76538379 </i>
    <i name="hartreedc">    -92.40552150 </i>
    <i name="XCdc">    -28.67149430 </i>
    <i name="pawpsdc">   1118.11986310 </i>
    <i name="pawaedc">  -1060.34423219 </i>
    <i name="eentropy">     -0.00330613 </i>
    <i name="bandstr">     98.33637438 </i>
    <i name="atom">    809.72612850 </i>
    <i name="e_fr_energy">     -4.68511333 </i>
    <i name="e_wo_entrp">     -4.68180720 </i>
    <i name="e_0_energy">     -4.68401129 </i>
   </energy>
  </scstep>
  <structure>
   <crystal>
    <varray name="basis" >
     <v>       2.58560666       0.00000000       0.00000000 </v>
     <v>       1.29280333       2.23920105       0.00000000 </v>
     <v>       1.29280333       0.74640035       2.11113899 </v>
    </varray>
    <i name="volume">     12.22284694 </i>
    <varray name="rec_basis" >
     <v>       0.38675643      -0.22329393      -0.15789265 </v>
     <v>       0.00000000       0.44658786      -0.15789265 </v>
     <v>       0.00000000       0.00000000       0.47367795 </v>
    </varray>
   </crystal>
   <varray name="positions" >
    <v>       0.00000000       0.00000000       0.00000000 </v>
   </varray>
  </structure>
  <varray name="forces" >
   <v>       0.00000000       0.00000000       0.00000000 </v>
  </varray>
  <varray name="stress" >
   <v>     680.16389203       0.00000000       0.00000000 </v>
   <v>       0.00000000     680.16389203       0.00000000 </v>
   <v>       0.00000000       0.00000000     680.16389203 </v>
  </varray>
  <energy>
   <i name="e_fr_energy">     -4.68511333 </i>
   <i name="e_wo_entrp">     -4.68401129 </i>
   <i name="e_0_energy">     -0.00330613 </i>
  </energy>
  <time name="totalsc">    3.71    3.93</time>
  <eigenvalues>
   <array>
    <dimension dim="1">band</dimension>
    <dimension dim="2">kpoint</dimension>
    <dimension dim="3">spin</dimension>
    <field>eigene</field>
    <field>occ</field>
    <set>
     <set comment="spin 1">
      <set comment="kpoint 1">
       <r>    4.7924    1.0000 </r>
       <r>    9.4310    1.0000 </r>
       <r>    9.5676    1.0000 </r>
       <r>    9.5676    1.0000 </r>
       <r>   11.6570    1.0000 </r>
       <r>   11.6570    1.0000 </r>
       <r>   30.6401    0.0000 </r>
       <r>   35.3419    0.0000 </r>
       <r>   36.5332    0.0000 </r>
      </set>
      <set comment="kpoint 2">
       <r>    5.6162    1.0000 </r>
       <r>    9.1003    1.0000 </r>
       <r>    9.8463    1.0000 </r>
       <r>    9.8834    1.0000 </r>
       <r>   11.3328    1.0000 </r>
       <r>   11.8068    1.0000 </r>
       <r>   31.6432    0.0000 </r>
       <r>   32.8060    0.0000 </r>
       <r>   36.6253    0.0000 </r>
      </set>
      <set comment="kpoint 3">
       <r>    6.7011    1.0000 </r>
       <r>    9.4568    1.0000 </r>
       <r>    9.8889    1.0000 </r>
       <r>    9.9422    1.0000 </r>
       <r>   11.6480    1.0000 </r>
       <r>   12.5475    1.0000 </r>
       <r>   28.7490    0.0000 </r>
       <r>   31.9828    0.0000 </r>
       <r>   37.6022    0.0000 </r>
      </set>
      <set comment="kpoint 4">
       <r>    6.6128    1.0000 </r>
       <r>    9.4611    1.0000 </r>
       <r>    9.6209    1.0000 </r>
       <r>   11.6299    1.0000 </r>
       <r>   12.7316    1.0001 </r>
       <r>   14.0172    0.0000 </r>
       <r>   24.3644    0.0000 </r>
       <r>   30.5235    0.0000 </r>
       <r>   35.9003    0.0000 </r>
      </set>
      <set comment="kpoint 5">
       <r>    6.4976    1.0000 </r>
       <r>    9.3097    1.0000 </r>
       <r>    9.5368    1.0000 </r>
       <r>   12.2892    1.0000 </r>
       <r>   13.3448    0.5335 </r>
       <r>   14.9653    0.0000 </r>
       <r>   22.4259    0.0000 </r>
       <r>   30.0468    0.0000 </r>
       <r>   35.8009    0.0000 </r>
      </set>
      <set comment="kpoint 6">
       <r>    6.6851    1.0000 </r>
       <r>    9.5311    1.0000 </r>
       <r>    9.7713    1.0000 </r>
       <r>   10.7950    1.0000 </r>
       <r>   12.9189    1.0045 </r>
       <r>   13.0517    1.0274 </r>
       <r>   25.7773    0.0000 </r>
       <r>   31.0033    0.0000 </r>
       <r>   36.7505    0.0000 </r>
      </set>
      <set comment="kpoint 7">
       <r>    6.4580    1.0000 </r>
       <r>    9.0858    1.0000 </r>
       <r>    9.9306    1.0000 </r>
       <r>   10.0169    1.0000 </r>
       <r>   11.5564    1.0000 </r>
       <r>   12.0750    1.0000 </r>
       <r>   30.1618    0.0000 </r>
       <r>   32.2797    0.0000 </r>
       <r>   37.5966    0.0000 </r>
      </set>
      <set comment="kpoint 8">
       <r>    5.2241    1.0000 </r>
       <r>    9.1827    1.0000 </r>
       <r>    9.7676    1.0000 </r>
       <r>    9.7759    1.0000 </r>
       <r>   11.3791    1.0000 </r>
       <r>   11.7829    1.0000 </r>
       <r>   31.2310    0.0000 </r>
       <r>   34.1471    0.0000 </r>
       <r>   36.5514    0.0000 </r>
      </set>
      <set comment="kpoint 9">
       <r>    6.0000    1.0000 </r>
       <r>    8.7153    1.0000 </r>
       <r>   10.1405    1.0000 </r>
       <r>   10.1833    1.0000 </r>
       <r>   11.0151    1.0000 </r>
       <r>   12.0207    1.0000 </r>
       <r>   32.2583    0.0000 </r>
       <r>   33.1314    0.0000 </r>
       <r>   36.0676    0.0000 </r>
      </set>
      <set comment="kpoint 10">
       <r>    7.0878    1.0000 </r>
       <r>    8.3289    1.0000 </r>
       <r>    9.8436    1.0000 </r>
       <r>   10.6839    1.0000 </r>
       <r>   11.5269    1.0000 </r>
       <r>   12.7273    1.0000 </r>
       <r>   30.6498    0.0000 </r>
       <r>   32.6282    0.0000 </r>
       <r>   35.3172    0.0000 </r>
      </set>
      <set comment="kpoint 11">
       <r>    7.2229    1.0000 </r>
       <r>    8.9954    1.0000 </r>
       <r>    9.5674    1.0000 </r>
       <r>   10.4811    1.0000 </r>
       <r>   12.8528    1.0012 </r>
       <r>   14.7588    0.0000 </r>
       <r>   26.0699    0.0000 </r>
       <r>   31.4335    0.0000 </r>
       <r>   33.6190    0.0000 </r>
      </set>
      <set comment="kpoint 12">
       <r>    7.1055    1.0000 </r>
       <r>    8.7632    1.0000 </r>
       <r>   10.1625    1.0000 </r>
       <r>   10.6391    1.0000 </r>
       <r>   13.2436    0.8941 </r>
       <r>   17.3947    0.0000 </r>
       <r>   22.3163    0.0000 </r>
       <r>   30.6017    0.0000 </r>
       <r>   33.2014    0.0000 </r>
      </set>
      <set comment="kpoint 13">
       <r>    7.2838    1.0000 </r>
       <r>    8.9626    1.0000 </r>
       <r>   10.0009    1.0000 </r>
       <r>   10.3732    1.0000 </r>
       <r>   12.5644    1.0000 </r>
       <r>   15.9867    0.0000 </r>
       <r>   24.6526    0.0000 </r>
       <r>   30.6519    0.0000 </r>
       <r>   33.3113    0.0000 </r>
      </set>
      <set comment="kpoint 14">
       <r>    7.4602    1.0000 </r>
       <r>    8.6330    1.0000 </r>
       <r>    9.5625    1.0000 </r>
       <r>   10.6125    1.0000 </r>
       <r>   11.3095    1.0000 </r>
       <r>   13.6737   -0.0228 </r>
       <r>   29.1855    0.0000 </r>
       <r>   31.5140    0.0000 </r>
       <r>   35.2016    0.0000 </r>
      </set>
      <set comment="kpoint 15">
       <r>    6.3184    1.0000 </r>
       <r>    8.7787    1.0000 </r>
       <r>   10.0027    1.0000 </r>
       <r>   10.1760    1.0000 </r>
       <r>   11.1526    1.0000 </r>
       <r>   12.1613    1.0000 </r>
       <r>   31.5772    0.0000 </r>
       <r>   32.3707    0.0000 </r>
       <r>   36.3028    0.0000 </r>
      </set>
      <set comment="kpoint 16">
       <r>    7.1404    1.0000 </r>
       <r>    7.5923    1.0000 </r>
       <r>   10.7619    1.0000 </r>
       <r>   11.4758    1.0000 </r>
       <r>   12.2480    1.0000 </r>
       <r>   12.7089    1.0000 </r>
       <r>   31.1768    0.0000 </r>
       <r>   32.5350    0.0000 </r>
       <r>   32.7377    0.0000 </r>
      </set>
      <set comment="kpoint 17">
       <r>    7.1046    1.0000 </r>
       <r>    7.4127    1.0000 </r>
       <r>   10.6286    1.0000 </r>
       <r>   12.0396    1.0000 </r>
       <r>   12.9633    1.0094 </r>
       <r>   15.0463    0.0000 </r>
       <r>   28.1560    0.0000 </r>
       <r>   30.1972    0.0000 </r>
       <r>   30.8034    0.0000 </r>
      </set>
      <set comment="kpoint 18">
       <r>    7.1971    1.0000 </r>
       <r>    7.9767    1.0000 </r>
       <r>   10.1140    1.0000 </r>
       <r>   11.5293    1.0000 </r>
       <r>   13.3512    0.5063 </r>
       <r>   18.9943    0.0000 </r>
       <r>   23.4825    0.0000 </r>
       <r>   28.6441    0.0000 </r>
       <r>   30.6666    0.0000 </r>
      </set>
      <set comment="kpoint 19">
       <r>    7.7767    1.0000 </r>
       <r>    8.5641    1.0000 </r>
       <r>    9.3637    1.0000 </r>
       <r>   11.1697    1.0000 </r>
       <r>   12.6314    1.0000 </r>
       <r>   19.2531    0.0000 </r>
       <r>   24.1390    0.0000 </r>
       <r>   27.0161    0.0000 </r>
       <r>   32.4594    0.0000 </r>
      </set>
      <set comment="kpoint 20">
       <r>    8.0172    1.0000 </r>
       <r>    8.7785    1.0000 </r>
       <r>    9.0769    1.0000 </r>
       <r>   10.8552    1.0000 </r>
       <r>   11.8939    1.0000 </r>
       <r>   16.1978    0.0000 </r>
       <r>   26.6736    0.0000 </r>
       <r>   29.0472    0.0000 </r>
       <r>   33.3664    0.0000 </r>
      </set>
      <set comment="kpoint 21">
       <r>    6.9872    1.0000 </r>
       <r>    9.5136    1.0000 </r>
       <r>    9.6312    1.0000 </r>
       <r>   10.1065    1.0000 </r>
       <r>   12.1155    1.0000 </r>
       <r>   13.4222    0.2247 </r>
       <r>   27.4343    0.0000 </r>
       <r>   31.6969    0.0000 </r>
       <r>   35.6977    0.0000 </r>
      </set>
      <set comment="kpoint 22">
       <r>    6.4485    1.0000 </r>
       <r>    6.7583    1.0000 </r>
       <r>   12.6910    1.0000 </r>
       <r>   12.8425    1.0009 </r>
       <r>   13.4263    0.2109 </r>
       <r>   15.5435    0.0000 </r>
       <r>   28.0067    0.0000 </r>
       <r>   28.4262    0.0000 </r>
       <r>   28.8445    0.0000 </r>
      </set>
      <set comment="kpoint 23">
       <r>    6.4878    1.0000 </r>
       <r>    6.8838    1.0000 </r>
       <r>   11.9957    1.0000 </r>
       <r>   12.7913    1.0003 </r>
       <r>   13.6603   -0.0259 </r>
       <r>   18.5071    0.0000 </r>
       <r>   25.8907    0.0000 </r>
       <r>   26.6271    0.0000 </r>
       <r>   28.0556    0.0000 </r>
      </set>
      <set comment="kpoint 24">
       <r>    7.0591    1.0000 </r>
       <r>    7.8114    1.0000 </r>
       <r>   10.4006    1.0000 </r>
       <r>   11.8947    1.0000 </r>
       <r>   13.2779    0.7934 </r>
       <r>   21.1574    0.0000 </r>
       <r>   22.7280    0.0000 </r>
       <r>   26.4452    0.0000 </r>
       <r>   30.2206    0.0000 </r>
      </set>
      <set comment="kpoint 25">
       <r>    7.5393    1.0000 </r>
       <r>    8.4633    1.0000 </r>
       <r>    9.9757    1.0000 </r>
       <r>   10.6860    1.0000 </r>
       <r>   12.9982    1.0155 </r>
       <r>   18.8794    0.0000 </r>
       <r>   22.4371    0.0000 </r>
       <r>   29.3922    0.0000 </r>
       <r>   32.4329    0.0000 </r>
      </set>
      <set comment="kpoint 26">
       <r>    6.7646    1.0000 </r>
       <r>    9.1588    1.0000 </r>
       <r>    9.7846    1.0000 </r>
       <r>   11.2753    1.0000 </r>
       <r>   13.1380    1.0312 </r>
       <r>   15.5193    0.0000 </r>
       <r>   23.1690    0.0000 </r>
       <r>   30.5075    0.0000 </r>
       <r>   34.6304    0.0000 </r>
      </set>
      <set comment="kpoint 27">
       <r>    6.2052    1.0000 </r>
       <r>    6.5760    1.0000 </r>
       <r>   13.1558    1.0235 </r>
       <r>   13.2351    0.9146 </r>
       <r>   13.6914   -0.0188 </r>
       <r>   17.0374    0.0000 </r>
       <r>   26.4794    0.0000 </r>
       <r>   27.2128    0.0000 </r>
       <r>   27.9277    0.0000 </r>
      </set>
      <set comment="kpoint 28">
       <r>    6.7275    1.0000 </r>
       <r>    7.0596    1.0000 </r>
       <r>   11.4211    1.0000 </r>
       <r>   12.6070    1.0000 </r>
       <r>   13.3781    0.3935 </r>
       <r>   16.9150    0.0000 </r>
       <r>   26.8013    0.0000 </r>
       <r>   28.4178    0.0000 </r>
       <r>   28.8362    0.0000 </r>
      </set>
      <set comment="kpoint 29">
       <r>    7.3004    1.0000 </r>
       <r>    8.3813    1.0000 </r>
       <r>    9.7672    1.0000 </r>
       <r>   10.9957    1.0000 </r>
       <r>   13.2664    0.8304 </r>
       <r>   16.6967    0.0000 </r>
       <r>   24.6794    0.0000 </r>
       <r>   30.6888    0.0000 </r>
       <r>   31.7237    0.0000 </r>
      </set>
      <set comment="kpoint 30">
       <r>    6.8458    1.0000 </r>
       <r>    7.1094    1.0000 </r>
       <r>   11.7648    1.0000 </r>
       <r>   12.2231    1.0000 </r>
       <r>   13.0787    1.0328 </r>
       <r>   13.7220   -0.0127 </r>
       <r>   29.5862    0.0000 </r>
       <r>   30.4783    0.0000 </r>
       <r>   30.7293    0.0000 </r>
      </set>
      <set comment="kpoint 31">
       <r>    7.3813    1.0000 </r>
       <r>    7.8720    1.0000 </r>
       <r>    9.9418    1.0000 </r>
       <r>   11.3290    1.0000 </r>
       <r>   12.3186    1.0000 </r>
       <r>   13.5947   -0.0354 </r>
       <r>   29.5560    0.0000 </r>
       <r>   31.7287    0.0000 </r>
       <r>   33.1190    0.0000 </r>
      </set>
      <set comment="kpoint 32">
       <r>    6.8362    1.0000 </r>
       <r>    8.1514    1.0000 </r>
       <r>   10.3022    1.0000 </r>
       <r>   10.7654    1.0000 </r>
       <r>   11.2679    1.0000 </r>
       <r>   12.3421    1.0000 </r>
       <r>   32.2292    0.0000 </r>
       <r>   33.4697    0.0000 </r>
       <r>   34.6105    0.0000 </r>
      </set>
      <set comment="kpoint 33">
       <r>    5.9258    1.0000 </r>
       <r>    9.1727    1.0000 </r>
       <r>    9.8801    1.0000 </r>
       <r>    9.8801    1.0000 </r>
       <r>   11.6147    1.0000 </r>
       <r>   11.6147    1.0000 </r>
       <r>   31.3589    0.0000 </r>
       <r>   32.0174    0.0000 </r>
       <r>   38.2874    0.0000 </r>
      </set>
      <set comment="kpoint 34">
       <r>    6.8688    1.0000 </r>
       <r>    8.7742    1.0000 </r>
       <r>    9.9047    1.0000 </r>
       <r>   10.2965    1.0000 </r>
       <r>   11.0274    1.0000 </r>
       <r>   12.7667    1.0001 </r>
       <r>   30.2987    0.0000 </r>
       <r>   32.1523    0.0000 </r>
       <r>   36.4706    0.0000 </r>
      </set>
      <set comment="kpoint 35">
       <r>    7.7794    1.0000 </r>
       <r>    8.8468    1.0000 </r>
       <r>    9.4536    1.0000 </r>
       <r>   10.5185    1.0000 </r>
       <r>   11.3706    1.0000 </r>
       <r>   14.8330    0.0000 </r>
       <r>   27.9007    0.0000 </r>
       <r>   30.3020    0.0000 </r>
       <r>   34.4118    0.0000 </r>
      </set>
      <set comment="kpoint 36">
       <r>    7.3813    1.0000 </r>
       <r>    8.7722    1.0000 </r>
       <r>   10.2946    1.0000 </r>
       <r>   10.3024    1.0000 </r>
       <r>   12.6683    1.0000 </r>
       <r>   17.3364    0.0000 </r>
       <r>   23.4233    0.0000 </r>
       <r>   29.9240    0.0000 </r>
       <r>   33.4007    0.0000 </r>
      </set>
      <set comment="kpoint 37">
       <r>    7.1557    1.0000 </r>
       <r>    8.6785    1.0000 </r>
       <r>   10.1866    1.0000 </r>
       <r>   10.4306    1.0000 </r>
       <r>   13.4108    0.2653 </r>
       <r>   17.0685    0.0000 </r>
       <r>   23.1393    0.0000 </r>
       <r>   30.6213    0.0000 </r>
       <r>   33.6505    0.0000 </r>
      </set>
      <set comment="kpoint 38">
       <r>    7.2369    1.0000 </r>
       <r>    8.4281    1.0000 </r>
       <r>    9.7375    1.0000 </r>
       <r>   10.7486    1.0000 </r>
       <r>   13.0778    1.0327 </r>
       <r>   13.7107   -0.0148 </r>
       <r>   27.7310    0.0000 </r>
       <r>   32.1417    0.0000 </r>
       <r>   33.5603    0.0000 </r>
      </set>
      <set comment="kpoint 39">
       <r>    7.0033    1.0000 </r>
       <r>    8.8499    1.0000 </r>
       <r>    9.7112    1.0000 </r>
       <r>   10.3047    1.0000 </r>
       <r>   12.2688    1.0000 </r>
       <r>   12.5990    1.0000 </r>
       <r>   29.0181    0.0000 </r>
       <r>   32.4640    0.0000 </r>
       <r>   35.7166    0.0000 </r>
      </set>
      <set comment="kpoint 40">
       <r>    7.7420    1.0000 </r>
       <r>    8.4259    1.0000 </r>
       <r>    9.2073    1.0000 </r>
       <r>   11.1616    1.0000 </r>
       <r>   12.0078    1.0000 </r>
       <r>   14.8756    0.0000 </r>
       <r>   28.0155    0.0000 </r>
       <r>   30.4300    0.0000 </r>
       <r>   33.1617    0.0000 </r>
      </set>
      <set comment="kpoint 41">
       <r>    8.1574    1.0000 </r>
       <r>    8.3034    1.0000 </r>
       <r>    8.9728    1.0000 </r>
       <r>   11.3318    1.0000 </r>
       <r>   12.5747    1.0000 </r>
       <r>   17.8983    0.0000 </r>
       <r>   25.4572    0.0000 </r>
       <r>   27.9422    0.0000 </r>
       <r>   31.5196    0.0000 </r>
      </set>
      <set comment="kpoint 42">
       <r>    7.7311    1.0000 </r>
       <r>    8.1935    1.0000 </r>
       <r>    9.5335    1.0000 </r>
       <r>   11.1937    1.0000 </r>
       <r>   13.1839    1.0005 </r>
       <r>   20.0257    0.0000 </r>
       <r>   22.4538    0.0000 </r>
       <r>   29.1106    0.0000 </r>
       <r>   29.9095    0.0000 </r>
      </set>
      <set comment="kpoint 43">
       <r>    7.5696    1.0000 </r>
       <r>    7.9602    1.0000 </r>
       <r>    9.5510    1.0000 </r>
       <r>   11.7664    1.0000 </r>
       <r>   12.6966    1.0000 </r>
       <r>   16.5025    0.0000 </r>
       <r>   26.7358    0.0000 </r>
       <r>   29.1612    0.0000 </r>
       <r>   30.9919    0.0000 </r>
      </set>
      <set comment="kpoint 44">
       <r>    7.1065    1.0000 </r>
       <r>    7.8660    1.0000 </r>
       <r>   10.3064    1.0000 </r>
       <r>   11.3138    1.0000 </r>
       <r>   13.4094    0.2706 </r>
       <r>   15.6269    0.0000 </r>
       <r>   26.2823    0.0000 </r>
       <r>   30.7130    0.0000 </r>
       <r>   31.7003    0.0000 </r>
      </set>
      <set comment="kpoint 45">
       <r>    7.2267    1.0000 </r>
       <r>    7.6131    1.0000 </r>
       <r>   10.1356    1.0000 </r>
       <r>   12.1233    1.0000 </r>
       <r>   13.2637    0.8384 </r>
       <r>   18.4979    0.0000 </r>
       <r>   25.5775    0.0000 </r>
       <r>   28.0238    0.0000 </r>
       <r>   28.6548    0.0000 </r>
      </set>
      <set comment="kpoint 46">
       <r>    7.4552    1.0000 </r>
       <r>    8.2694    1.0000 </r>
       <r>    9.3312    1.0000 </r>
       <r>   11.5883    1.0000 </r>
       <r>   13.6454   -0.0293 </r>
       <r>   22.1158    0.0000 </r>
       <r>   23.6681    0.0000 </r>
       <r>   26.2016    0.0000 </r>
       <r>   27.2166    0.0000 </r>
      </set>
      <set comment="kpoint 47">
       <r>    7.7348    1.0000 </r>
       <r>    8.2809    1.0000 </r>
       <r>    9.1302    1.0000 </r>
       <r>   11.5749    1.0000 </r>
       <r>   13.2161    0.9539 </r>
       <r>   19.9779    0.0000 </r>
       <r>   24.3608    0.0000 </r>
       <r>   27.1612    0.0000 </r>
       <r>   29.0359    0.0000 </r>
      </set>
      <set comment="kpoint 48">
       <r>    6.6607    1.0000 </r>
       <r>    7.2461    1.0000 </r>
       <r>   11.4258    1.0000 </r>
       <r>   12.3991    1.0000 </r>
       <r>   13.4364    0.1779 </r>
       <r>   19.6145    0.0000 </r>
       <r>   24.1873    0.0000 </r>
       <r>   26.4863    0.0000 </r>
       <r>   29.6700    0.0000 </r>
      </set>
      <set comment="kpoint 49">
       <r>    6.9811    1.0000 </r>
       <r>    7.4657    1.0000 </r>
       <r>   10.5948    1.0000 </r>
       <r>   12.1515    1.0000 </r>
       <r>   13.6487   -0.0285 </r>
       <r>   20.3283    0.0000 </r>
       <r>   24.8608    0.0000 </r>
       <r>   26.3858    0.0000 </r>
       <r>   27.6422    0.0000 </r>
      </set>
      <set comment="kpoint 50">
       <r>    6.8495    1.0000 </r>
       <r>    7.4452    1.0000 </r>
       <r>   10.9819    1.0000 </r>
       <r>   11.9195    1.0000 </r>
       <r>   13.5185    0.0029 </r>
       <r>   17.7820    0.0000 </r>
       <r>   24.9752    0.0000 </r>
       <r>   28.4722    0.0000 </r>
       <r>   30.3645    0.0000 </r>
      </set>
      <set comment="kpoint 51">
       <r>    6.6133    1.0000 </r>
       <r>    9.7500    1.0000 </r>
       <r>    9.7500    1.0000 </r>
       <r>   10.4759    1.0000 </r>
       <r>   12.3244    1.0000 </r>
       <r>   12.3244    1.0000 </r>
       <r>   27.1949    0.0000 </r>
       <r>   31.3902    0.0000 </r>
       <r>   39.0668    0.0000 </r>
      </set>
      <set comment="kpoint 52">
       <r>    7.0813    1.0000 </r>
       <r>    9.3406    1.0000 </r>
       <r>    9.9941    1.0000 </r>
       <r>   10.2226    1.0000 </r>
       <r>   12.0688    1.0000 </r>
       <r>   14.5626    0.0000 </r>
       <r>   26.0043    0.0000 </r>
       <r>   31.0857    0.0000 </r>
       <r>   34.5800    0.0000 </r>
      </set>
      <set comment="kpoint 53">
       <r>    7.9463    1.0000 </r>
       <r>    8.7481    1.0000 </r>
       <r>    9.3631    1.0000 </r>
       <r>   10.8114    1.0000 </r>
       <r>   12.1297    1.0000 </r>
       <r>   17.6038    0.0000 </r>
       <r>   25.4235    0.0000 </r>
       <r>   27.8283    0.0000 </r>
       <r>   33.8428    0.0000 </r>
      </set>
      <set comment="kpoint 54">
       <r>    7.3174    1.0000 </r>
       <r>    8.3015    1.0000 </r>
       <r>    9.9470    1.0000 </r>
       <r>   11.4833    1.0000 </r>
       <r>   12.8760    1.0019 </r>
       <r>   20.7080    0.0000 </r>
       <r>   22.7186    0.0000 </r>
       <r>   26.5716    0.0000 </r>
       <r>   32.5820    0.0000 </r>
      </set>
      <set comment="kpoint 55">
       <r>    6.8945    1.0000 </r>
       <r>    9.1406    1.0000 </r>
       <r>   10.0064    1.0000 </r>
       <r>   10.4750    1.0000 </r>
       <r>   13.3107    0.6735 </r>
       <r>   14.8482    0.0000 </r>
       <r>   24.4101    0.0000 </r>
       <r>   30.9591    0.0000 </r>
       <r>   34.9219    0.0000 </r>
      </set>
      <set comment="kpoint 56">
       <r>    7.5619    1.0000 </r>
       <r>    8.4708    1.0000 </r>
       <r>    9.7749    1.0000 </r>
       <r>   10.7569    1.0000 </r>
       <r>   13.0107    1.0181 </r>
       <r>   17.8454    0.0000 </r>
       <r>   23.3998    0.0000 </r>
       <r>   30.2187    0.0000 </r>
       <r>   31.6052    0.0000 </r>
      </set>
      <set comment="kpoint 57">
       <r>    7.6026    1.0000 </r>
       <r>    8.3339    1.0000 </r>
       <r>    9.3573    1.0000 </r>
       <r>   11.4693    1.0000 </r>
       <r>   13.2167    0.9528 </r>
       <r>   21.2659    0.0000 </r>
       <r>   22.9578    0.0000 </r>
       <r>   26.6066    0.0000 </r>
       <r>   29.7042    0.0000 </r>
      </set>
      <set comment="kpoint 58">
       <r>    7.3172    1.0000 </r>
       <r>    8.3705    1.0000 </r>
       <r>   10.0172    1.0000 </r>
       <r>   10.9789    1.0000 </r>
       <r>   13.2135    0.9585 </r>
       <r>   19.4045    0.0000 </r>
       <r>   22.2399    0.0000 </r>
       <r>   28.8636    0.0000 </r>
       <r>   32.9056    0.0000 </r>
      </set>
      <set comment="kpoint 59">
       <r>    6.4176    1.0000 </r>
       <r>    9.4633    1.0000 </r>
       <r>    9.4633    1.0000 </r>
       <r>   13.1956    0.9863 </r>
       <r>   13.1956    0.9863 </r>
       <r>   13.2891    0.7546 </r>
       <r>   23.1568    0.0000 </r>
       <r>   30.0207    0.0000 </r>
       <r>   36.5704    0.0000 </r>
      </set>
      <set comment="kpoint 60">
       <r>    6.8356    1.0000 </r>
       <r>    9.0370    1.0000 </r>
       <r>    9.8306    1.0000 </r>
       <r>   11.2923    1.0000 </r>
       <r>   13.1443    1.0290 </r>
       <r>   16.4674    0.0000 </r>
       <r>   22.3861    0.0000 </r>
       <r>   30.4272    0.0000 </r>
       <r>   34.2275    0.0000 </r>
      </set>
     </set>
    </set>
   </array>
  </eigenvalues>
  <separator name="orbital magnetization" >
   <v name="MAGDIPOLOUT">      0.00000000      0.00000000      0.00000000</v>
  </separator>
  <dos>
   <i name="efermi">     13.35273901 </i>
   <total>
    <array>
     <dimension dim="1">gridpoints</dimension>
     <dimension dim="2">spin</dimension>
     <field>energy</field>
     <field>total</field>
     <field>integrated</field>
     <set>
      <set comment="spin 1">
       <r>     2.7924     0.0000     0.0000 </r>
       <r>     2.9200     0.0000     0.0000 </r>
       <r>     3.0476     0.0000     0.0000 </r>
       <r>     3.1751     0.0000     0.0000 </r>
       <r>     3.3027     0.0000     0.0000 </r>
       <r>     3.4303     0.0000     0.0000 </r>
       <r>     3.5579     0.0000     0.0000 </r>
       <r>     3.6855     0.0000     0.0000 </r>
       <r>     3.8130     0.0000     0.0000 </r>
       <r>     3.9406     0.0000     0.0000 </r>
       <r>     4.0682     0.0000     0.0000 </r>
       <r>     4.1958     0.0000     0.0000 </r>
       <r>     4.3234    -0.0001     0.0000 </r>
       <r>     4.4510    -0.0010    -0.0001 </r>
       <r>     4.5785    -0.0008    -0.0002 </r>
       <r>     4.7061     0.0122     0.0013 </r>
       <r>     4.8337     0.0291     0.0050 </r>
       <r>     4.9613     0.0156     0.0070 </r>
       <r>     5.0889     0.0169     0.0092 </r>
       <r>     5.2164     0.0742     0.0186 </r>
       <r>     5.3440     0.0781     0.0286 </r>
       <r>     5.4716     0.0329     0.0328 </r>
       <r>     5.5992     0.0659     0.0412 </r>
       <r>     5.7268     0.0791     0.0513 </r>
       <r>     5.8543     0.0481     0.0574 </r>
       <r>     5.9819     0.0886     0.0687 </r>
       <r>     6.1095     0.1173     0.0837 </r>
       <r>     6.2371     0.1691     0.1053 </r>
       <r>     6.3647     0.3616     0.1514 </r>
       <r>     6.4923     0.6068     0.2288 </r>
       <r>     6.6198     0.7750     0.3277 </r>
       <r>     6.7474     1.0185     0.4576 </r>
       <r>     6.8750     1.2756     0.6204 </r>
       <r>     7.0026     1.5601     0.8194 </r>
       <r>     7.1302     2.0260     1.0779 </r>
       <r>     7.2577     2.0741     1.3425 </r>
       <r>     7.3853     1.8205     1.5748 </r>
       <r>     7.5129     1.7541     1.7985 </r>
       <r>     7.6405     1.6409     2.0079 </r>
       <r>     7.7681     1.4756     2.1962 </r>
       <r>     7.8957     1.3105     2.3634 </r>
       <r>     8.0232     0.9752     2.4878 </r>
       <r>     8.1508     0.8172     2.5920 </r>
       <r>     8.2784     1.2981     2.7576 </r>
       <r>     8.4060     1.7152     2.9765 </r>
       <r>     8.5336     1.2997     3.1423 </r>
       <r>     8.6611     0.9409     3.2623 </r>
       <r>     8.7887     1.1731     3.4120 </r>
       <r>     8.9163     1.1928     3.5642 </r>
       <r>     9.0439     1.2025     3.7176 </r>
       <r>     9.1715     1.3422     3.8888 </r>
       <r>     9.2990     1.2570     4.0492 </r>
       <r>     9.4266     1.4373     4.2326 </r>
       <r>     9.5542     1.7882     4.4607 </r>
       <r>     9.6818     1.7486     4.6838 </r>
       <r>     9.8094     1.8359     4.9180 </r>
       <r>     9.9370     2.1759     5.1957 </r>
       <r>    10.0645     2.1857     5.4745 </r>
       <r>    10.1921     1.8891     5.7155 </r>
       <r>    10.3197     1.5001     5.9069 </r>
       <r>    10.4473     1.2032     6.0604 </r>
       <r>    10.5749     1.2395     6.2185 </r>
       <r>    10.7024     1.5271     6.4134 </r>
       <r>    10.8300     1.3476     6.5853 </r>
       <r>    10.9576     0.8621     6.6953 </r>
       <r>    11.0852     0.8222     6.8002 </r>
       <r>    11.2128     1.2689     6.9621 </r>
       <r>    11.3404     1.7903     7.1905 </r>
       <r>    11.4679     1.8963     7.4324 </r>
       <r>    11.5955     1.6304     7.6404 </r>
       <r>    11.7231     1.1216     7.7835 </r>
       <r>    11.8507     0.8760     7.8953 </r>
       <r>    11.9783     1.1780     8.0456 </r>
       <r>    12.1058     1.6099     8.2510 </r>
       <r>    12.2334     1.5251     8.4456 </r>
       <r>    12.3610     0.9551     8.5674 </r>
       <r>    12.4886     0.6494     8.6503 </r>
       <r>    12.6162     1.1522     8.7973 </r>
       <r>    12.7437     1.6044     9.0019 </r>
       <r>    12.8713     1.3390     9.1728 </r>
       <r>    12.9989     1.1088     9.3143 </r>
       <r>    13.1265     1.4785     9.5029 </r>
       <r>    13.2541     2.1839     9.7815 </r>
       <r>    13.3817     2.1343    10.0538 </r>
       <r>    13.5092     1.3760    10.2293 </r>
       <r>    13.6368     1.1586    10.3772 </r>
       <r>    13.7644     1.0457    10.5106 </r>
       <r>    13.8920     0.3707    10.5579 </r>
       <r>    14.0196     0.0441    10.5635 </r>
       <r>    14.1471     0.0460    10.5694 </r>
       <r>    14.2747     0.0077    10.5704 </r>
       <r>    14.4023    -0.0046    10.5698 </r>
       <r>    14.5299     0.0419    10.5751 </r>
       <r>    14.6575     0.1410    10.5931 </r>
       <r>    14.7851     0.3793    10.6415 </r>
       <r>    14.9126     0.5889    10.7166 </r>
       <r>    15.0402     0.4776    10.7776 </r>
       <r>    15.1678     0.2020    10.8033 </r>
       <r>    15.2954     0.0083    10.8044 </r>
       <r>    15.4230     0.0681    10.8131 </r>
       <r>    15.5505     0.2990    10.8512 </r>
       <r>    15.6781     0.2935    10.8887 </r>
       <r>    15.8057     0.0882    10.8999 </r>
       <r>    15.9333     0.0884    10.9112 </r>
       <r>    16.0609     0.2058    10.9375 </r>
       <r>    16.1884     0.2252    10.9662 </r>
       <r>    16.3160     0.1746    10.9885 </r>
       <r>    16.4436     0.1995    11.0139 </r>
       <r>    16.5712     0.2976    11.0519 </r>
       <r>    16.6988     0.2681    11.0861 </r>
       <r>    16.8264     0.2192    11.1140 </r>
       <r>    16.9539     0.2672    11.1481 </r>
       <r>    17.0815     0.2782    11.1836 </r>
       <r>    17.2091     0.1616    11.2042 </r>
       <r>    17.3367     0.1870    11.2281 </r>
       <r>    17.4643     0.2616    11.2615 </r>
       <r>    17.5918     0.1655    11.2826 </r>
       <r>    17.7194     0.1719    11.3045 </r>
       <r>    17.8470     0.3804    11.3531 </r>
       <r>    17.9746     0.3875    11.4025 </r>
       <r>    18.1022     0.1119    11.4168 </r>
       <r>    18.2298    -0.0337    11.4125 </r>
       <r>    18.3573     0.0367    11.4172 </r>
       <r>    18.4849     0.2851    11.4535 </r>
       <r>    18.6125     0.3326    11.4960 </r>
       <r>    18.7401     0.1206    11.5114 </r>
       <r>    18.8677     0.1680    11.5328 </r>
       <r>    18.9952     0.3109    11.5724 </r>
       <r>    19.1228     0.2340    11.6023 </r>
       <r>    19.2504     0.1920    11.6268 </r>
       <r>    19.3780     0.2134    11.6540 </r>
       <r>    19.5056     0.1485    11.6730 </r>
       <r>    19.6331     0.0984    11.6855 </r>
       <r>    19.7607     0.0502    11.6919 </r>
       <r>    19.8883     0.1067    11.7055 </r>
       <r>    20.0159     0.3224    11.7467 </r>
       <r>    20.1435     0.2944    11.7842 </r>
       <r>    20.2711     0.1595    11.8046 </r>
       <r>    20.3986     0.1662    11.8258 </r>
       <r>    20.5262     0.0867    11.8368 </r>
       <r>    20.6538     0.0520    11.8435 </r>
       <r>    20.7814     0.0822    11.8539 </r>
       <r>    20.9090     0.0288    11.8576 </r>
       <r>    21.0365     0.0337    11.8619 </r>
       <r>    21.1641     0.2207    11.8901 </r>
       <r>    21.2917     0.3317    11.9324 </r>
       <r>    21.4193     0.1682    11.9539 </r>
       <r>    21.5469     0.0093    11.9550 </r>
       <r>    21.6745    -0.0136    11.9533 </r>
       <r>    21.8020    -0.0113    11.9519 </r>
       <r>    21.9296    -0.0057    11.9511 </r>
       <r>    22.0572     0.0838    11.9618 </r>
       <r>    22.1848     0.2505    11.9938 </r>
       <r>    22.3124     0.4710    12.0539 </r>
       <r>    22.4399     0.6830    12.1410 </r>
       <r>    22.5675     0.5096    12.2060 </r>
       <r>    22.6951     0.2727    12.2408 </r>
       <r>    22.8227     0.2590    12.2738 </r>
       <r>    22.9503     0.2307    12.3033 </r>
       <r>    23.0778     0.2752    12.3384 </r>
       <r>    23.2054     0.3292    12.3804 </r>
       <r>    23.3330     0.3264    12.4220 </r>
       <r>    23.4606     0.4264    12.4764 </r>
       <r>    23.5882     0.4048    12.5281 </r>
       <r>    23.7158     0.2440    12.5592 </r>
       <r>    23.8433     0.0831    12.5698 </r>
       <r>    23.9709     0.0031    12.5702 </r>
       <r>    24.0985     0.1310    12.5869 </r>
       <r>    24.2261     0.3178    12.6274 </r>
       <r>    24.3537     0.4016    12.6787 </r>
       <r>    24.4812     0.3488    12.7232 </r>
       <r>    24.6088     0.2968    12.7611 </r>
       <r>    24.7364     0.3915    12.8110 </r>
       <r>    24.8640     0.3590    12.8568 </r>
       <r>    24.9916     0.2403    12.8875 </r>
       <r>    25.1192     0.0820    12.8979 </r>
       <r>    25.2467    -0.0064    12.8971 </r>
       <r>    25.3743     0.1218    12.9127 </r>
       <r>    25.5019     0.3530    12.9577 </r>
       <r>    25.6295     0.3434    13.0015 </r>
       <r>    25.7571     0.2066    13.0279 </r>
       <r>    25.8846     0.2518    13.0600 </r>
       <r>    26.0122     0.3593    13.1058 </r>
       <r>    26.1398     0.3871    13.1552 </r>
       <r>    26.2674     0.3828    13.2041 </r>
       <r>    26.3950     0.4967    13.2674 </r>
       <r>    26.5225     0.7328    13.3609 </r>
       <r>    26.6501     0.9052    13.4764 </r>
       <r>    26.7777     0.7808    13.5760 </r>
       <r>    26.9053     0.3908    13.6259 </r>
       <r>    27.0329     0.2495    13.6577 </r>
       <r>    27.1605     0.4516    13.7153 </r>
       <r>    27.2880     0.5055    13.7798 </r>
       <r>    27.4156     0.3013    13.8183 </r>
       <r>    27.5432     0.2075    13.8447 </r>
       <r>    27.6708     0.2395    13.8753 </r>
       <r>    27.7984     0.3280    13.9171 </r>
       <r>    27.9259     0.6622    14.0016 </r>
       <r>    28.0535     1.0075    14.1302 </r>
       <r>    28.1811     0.7054    14.2202 </r>
       <r>    28.3087     0.2548    14.2527 </r>
       <r>    28.4363     0.2836    14.2889 </r>
       <r>    28.5639     0.4234    14.3429 </r>
       <r>    28.6914     0.5089    14.4078 </r>
       <r>    28.8190     0.5588    14.4791 </r>
       <r>    28.9466     0.5857    14.5538 </r>
       <r>    29.0742     0.7962    14.6554 </r>
       <r>    29.2018     0.8242    14.7606 </r>
       <r>    29.3293     0.4378    14.8164 </r>
       <r>    29.4569     0.2607    14.8497 </r>
       <r>    29.5845     0.3956    14.9001 </r>
       <r>    29.7121     0.4597    14.9588 </r>
       <r>    29.8397     0.3532    15.0038 </r>
       <r>    29.9672     0.3241    15.0452 </r>
       <r>    30.0948     0.4291    15.0999 </r>
       <r>    30.2224     0.7324    15.1934 </r>
       <r>    30.3500     0.8649    15.3037 </r>
       <r>    30.4776     0.8806    15.4161 </r>
       <r>    30.6052     1.2258    15.5725 </r>
       <r>    30.7327     1.3631    15.7464 </r>
       <r>    30.8603     0.8145    15.8503 </r>
       <r>    30.9879     0.4527    15.9080 </r>
       <r>    31.1155     0.4205    15.9617 </r>
       <r>    31.2431     0.2808    15.9975 </r>
       <r>    31.3706     0.2720    16.0322 </r>
       <r>    31.4982     0.6627    16.1168 </r>
       <r>    31.6258     1.1287    16.2608 </r>
       <r>    31.7534     1.0699    16.3973 </r>
       <r>    31.8810     0.4786    16.4583 </r>
       <r>    32.0086     0.1325    16.4752 </r>
       <r>    32.1361     0.2473    16.5068 </r>
       <r>    32.2637     0.4734    16.5672 </r>
       <r>    32.3913     0.7000    16.6565 </r>
       <r>    32.5189     0.8094    16.7598 </r>
       <r>    32.6465     0.6227    16.8392 </r>
       <r>    32.7740     0.3632    16.8855 </r>
       <r>    32.9016     0.2014    16.9112 </r>
       <r>    33.0292     0.2248    16.9399 </r>
       <r>    33.1568     0.5576    17.0111 </r>
       <r>    33.2844     0.7596    17.1080 </r>
       <r>    33.4119     0.6387    17.1895 </r>
       <r>    33.5395     0.4919    17.2522 </r>
       <r>    33.6671     0.4103    17.3046 </r>
       <r>    33.7947     0.2478    17.3362 </r>
       <r>    33.9223     0.0935    17.3481 </r>
       <r>    34.0499     0.0566    17.3553 </r>
       <r>    34.1774     0.1339    17.3724 </r>
       <r>    34.3050     0.1675    17.3938 </r>
       <r>    34.4326     0.1495    17.4129 </r>
       <r>    34.5602     0.2804    17.4486 </r>
       <r>    34.6878     0.3699    17.4958 </r>
       <r>    34.8153     0.1904    17.5201 </r>
       <r>    34.9429     0.0708    17.5291 </r>
       <r>    35.0705     0.0810    17.5395 </r>
       <r>    35.1981     0.2127    17.5666 </r>
       <r>    35.3257     0.3434    17.6104 </r>
       <r>    35.4533     0.2032    17.6363 </r>
       <r>    35.5808     0.0826    17.6469 </r>
       <r>    35.7084     0.2627    17.6804 </r>
       <r>    35.8360     0.3650    17.7270 </r>
       <r>    35.9636     0.2290    17.7562 </r>
       <r>    36.0912     0.1232    17.7719 </r>
       <r>    36.2187     0.1258    17.7880 </r>
       <r>    36.3463     0.2012    17.8136 </r>
       <r>    36.4739     0.2695    17.8480 </r>
       <r>    36.6015     0.3212    17.8890 </r>
       <r>    36.7291     0.2605    17.9222 </r>
       <r>    36.8566     0.1153    17.9369 </r>
       <r>    36.9842     0.0151    17.9389 </r>
       <r>    37.1118    -0.0082    17.9378 </r>
       <r>    37.2394    -0.0074    17.9369 </r>
       <r>    37.3670    -0.0077    17.9359 </r>
       <r>    37.4946     0.0557    17.9430 </r>
       <r>    37.6221     0.1758    17.9654 </r>
       <r>    37.7497     0.1400    17.9833 </r>
       <r>    37.8773     0.0201    17.9858 </r>
       <r>    38.0049    -0.0106    17.9845 </r>
       <r>    38.1325     0.0005    17.9845 </r>
       <r>    38.2600     0.0224    17.9874 </r>
       <r>    38.3876     0.0297    17.9912 </r>
       <r>    38.5152     0.0100    17.9925 </r>
       <r>    38.6428    -0.0015    17.9923 </r>
       <r>    38.7704    -0.0023    17.9920 </r>
       <r>    38.8980     0.0016    17.9922 </r>
       <r>    39.0255     0.0202    17.9948 </r>
       <r>    39.1531     0.0307    17.9987 </r>
       <r>    39.2807     0.0123    18.0002 </r>
       <r>    39.4083    -0.0008    18.0001 </r>
       <r>    39.5359    -0.0010    18.0000 </r>
       <r>    39.6634    -0.0001    18.0000 </r>
       <r>    39.7910     0.0000    18.0000 </r>
       <r>    39.9186     0.0000    18.0000 </r>
       <r>    40.0462     0.0000    18.0000 </r>
       <r>    40.1738     0.0000    18.0000 </r>
       <r>    40.3013     0.0000    18.0000 </r>
       <r>    40.4289     0.0000    18.0000 </r>
       <r>    40.5565     0.0000    18.0000 </r>
       <r>    40.6841     0.0000    18.0000 </r>
       <r>    40.8117     0.0000    18.0000 </r>
       <r>    40.9393     0.0000    18.0000 </r>
       <r>    41.0668     0.0000    18.0000 </r>
      </set>
     </set>
    </array>
   </total>
  </dos>
 </calculation>
 <structure name="finalpos" >
  <crystal>
   <varray name="basis" >
    <v>       2.58560666       0.00000000       0.00000000 </v>
    <v>       1.29280333       2.23920105       0.00000000 </v>
    <v>       1.29280333       0.74640035       2.11113899 </v>
   </varray>
   <i name="volume">     12.22284694 </i>
   <varray name="rec_basis" >
    <v>       0.38675643      -0.22329393      -0.15789265 </v>
    <v>       0.00000000       0.44658786      -0.15789265 </v>
    <v>       0.00000000       0.00000000       0.47367795 </v>
   </varray>
  </crystal>
  <varray name="positions" >
   <v>       0.00000000       0.00000000       0.00000000 </v>
  </varray>
 </structure>
</modeling>
