unknown system                          
           1
     2.585607    0.000000    0.000000
     1.292803    2.239201    0.000000
     1.292803    0.746400    2.111139
   Pd
   1
Direct configuration=     1
   0.00000000  0.00000000  0.00000000
