unknown system                          
   1.00000000000000     
     2.660701    0.000000    0.000000
     1.330351    2.304235    0.000000
     1.330351    0.768078    2.172454
   Ag
     1
Direct
  0.000000  0.000000  0.000000
 
   24   24   24
  102.52      98.577      87.968      73.529      58.078      43.397      30.422      19.862      12.320      7.8575    
  5.6951      4.6435      4.3067      4.6435      5.6951      7.8575      12.320      19.862      30.422      43.397    
  58.078      73.529      87.968      98.577      98.577      91.316      78.887      64.152      49.358      35.772    
  24.187      15.311      9.5304      6.4707      5.0186      4.3479      4.3486      5.0194      6.4702      9.5297    
  15.312      24.188      35.771      49.357      64.152      78.888      91.317      98.577      87.968      78.888    
  66.346      52.653      39.396      27.569      17.980      11.235      7.3252      5.4258      4.4614      4.1545    
  4.4614      5.4258      7.3252      11.235      17.980      27.569      39.396      52.653      66.346      78.887    
  87.968      91.317      73.529      64.153      52.654      40.681      29.422      19.822      12.636      8.1313    
  5.8047      4.6123      4.0565      4.0556      4.6113      5.8055      8.1322      12.636      19.821      29.423    
  40.682      52.654      64.152      73.529      78.887      78.887      58.077      49.358      39.397      29.422    
  20.477      13.424      8.7141      6.1124      4.7563      4.0238      3.7963      4.0238      4.7563      6.1124    
  8.7141      13.424      20.477      29.422      39.397      49.358      58.077      64.152      66.346      64.152    
  43.396      35.771      27.569      19.822      13.424      8.9253      6.2881      4.8605      4.0245      3.6478    
  3.6489      4.0257      4.8596      6.2870      8.9261      13.425      19.821      27.568      35.772      43.397    
  49.357      52.653      52.654      49.358      30.422      24.187      17.980      12.637      8.7134      6.2869    
  4.8971      4.0339      3.5781      3.4387      3.5781      4.0339      4.8971      6.2869      8.7134      12.636    
  17.980      24.187      30.422      35.772      39.396      40.681      39.396      35.772      19.863      15.311    
  11.236      8.1321      6.1127      4.8596      4.0328      3.5585      3.3497      3.3488      3.5575      4.0335    
  4.8605      6.1121      8.1314      11.236      15.312      19.862      24.187      27.569      29.423      29.422    
  27.568      24.188      12.320      9.5302      7.3248      5.8051      4.7574      4.0250      3.5777      3.3494    
  3.2808      3.3494      3.5777      4.0250      4.7574      5.8051      7.3249      9.5302      12.320      15.311    
  17.980      19.821      20.478      19.821      17.980      15.311      7.8576      6.4706      5.4252      4.6118    
  4.0239      3.6485      3.4393      3.3491      3.3495      3.4398      3.6483      4.0235      4.6118      5.4253    
  6.4703      7.8575      9.5303      11.236      12.636      13.424      13.425      12.636      11.236      9.5297    
  5.6954      5.0188      4.4614      4.0560      3.7956      3.6485      3.5781      3.5578      3.5781      3.6485    
  3.7956      4.0560      4.4614      5.0189      5.6955      6.4704      7.3252      8.1319      8.7134      8.9255    
  8.7134      8.1318      7.3252      6.4704      4.6435      4.3481      4.1549      4.0560      4.0238      4.0251    
  4.0332      4.0332      4.0250      4.0236      4.0561      4.1553      4.3484      4.6433      5.0188      5.4252    
  5.8052      6.1125      6.2876      6.2876      6.1124      5.8050      5.4253      5.0192      4.3065      4.3484    
  4.4614      4.6117      4.7571      4.8601      4.8970      4.8601      4.7571      4.6117      4.4613      4.3483    
  4.3064      4.3483      4.4613      4.6117      4.7571      4.8601      4.8970      4.8601      4.7571      4.6117    
  4.4614      4.3484      4.6435      5.0192      5.4253      5.8050      6.1124      6.2876      6.2876      6.1125    
  5.8052      5.4252      5.0188      4.6433      4.3484      4.1553      4.0561      4.0236      4.0250      4.0332    
  4.0332      4.0251      4.0238      4.0560      4.1549      4.3481      5.6954      6.4704      7.3252      8.1318    
  8.7134      8.9255      8.7134      8.1319      7.3252      6.4704      5.6955      5.0189      4.4614      4.0560    
  3.7956      3.6485      3.5781      3.5578      3.5781      3.6485      3.7956      4.0560      4.4614      5.0188    
  7.8576      9.5297      11.236      12.636      13.425      13.424      12.636      11.236      9.5303      7.8575    
  6.4703      5.4253      4.6118      4.0235      3.6483      3.4398      3.3495      3.3491      3.4393      3.6485    
  4.0239      4.6118      5.4252      6.4706      12.320      15.311      17.980      19.821      20.478      19.821    
  17.980      15.311      12.320      9.5302      7.3249      5.8051      4.7574      4.0250      3.5777      3.3494    
  3.2808      3.3494      3.5777      4.0250      4.7574      5.8051      7.3248      9.5302      19.863      24.188    
  27.568      29.422      29.423      27.569      24.187      19.862      15.312      11.236      8.1314      6.1121    
  4.8605      4.0335      3.5575      3.3488      3.3497      3.5585      4.0328      4.8596      6.1127      8.1321    
  11.236      15.311      30.422      35.772      39.396      40.681      39.396      35.772      30.422      24.187    
  17.980      12.636      8.7134      6.2869      4.8971      4.0339      3.5781      3.4387      3.5781      4.0339    
  4.8971      6.2869      8.7134      12.637      17.980      24.187      43.396      49.358      52.654      52.653    
  49.357      43.397      35.772      27.568      19.821      13.425      8.9261      6.2870      4.8596      4.0257    
  3.6489      3.6478      4.0245      4.8605      6.2881      8.9253      13.424      19.822      27.569      35.771    
  58.077      64.152      66.346      64.152      58.077      49.358      39.397      29.422      20.477      13.424    
  8.7141      6.1124      4.7563      4.0238      3.7963      4.0238      4.7563      6.1124      8.7141      13.424    
  20.477      29.422      39.397      49.358      73.529      78.887      78.887      73.529      64.152      52.654    
  40.682      29.423      19.821      12.636      8.1322      5.8055      4.6113      4.0556      4.0565      4.6123    
  5.8047      8.1313      12.636      19.822      29.422      40.681      52.654      64.153      87.968      91.317    
  87.968      78.887      66.346      52.653      39.396      27.569      17.980      11.235      7.3252      5.4258    
  4.4614      4.1545      4.4614      5.4258      7.3252      11.235      17.980      27.569      39.396      52.653    
  66.346      78.888      98.577      98.577      91.317      78.888      64.152      49.357      35.771      24.188    
  15.312      9.5297      6.4702      5.0194      4.3486      4.3479      5.0186      6.4707      9.5304      15.311    
  24.187      35.772      49.358      64.152      78.887      91.316      98.577      91.316      78.887      64.152    
  49.358      35.772      24.187      15.311      9.5304      6.4707      5.0186      4.3479      4.3486      5.0194    
  6.4702      9.5297      15.312      24.188      35.771      49.357      64.152      78.888      91.317      98.577    
  91.316      81.744      68.595      54.344      40.642      28.459      18.571      11.579      7.4977      5.5182    
  4.5260      4.2092      4.5259      5.5182      7.4979      11.579      18.571      28.459      40.641      54.344    
  68.595      81.745      91.317      94.856      78.887      68.595      56.126      43.306      31.346      21.146    
  13.448      8.5583      6.0166      4.7494      4.1581      4.1572      4.7484      6.0173      8.5594      13.447    
  21.145      31.347      43.306      56.126      68.595      78.887      84.817      84.816      64.152      54.345    
  43.307      32.367      22.562      14.753      9.4448      6.4713      4.9706      4.1682      3.9175      4.1684    
  4.9705      6.4711      9.4448      14.753      22.563      32.367      43.307      54.345      64.152      71.076    
  73.596      71.076      49.357      40.641      31.347      22.563      15.221      9.9479      6.7977      5.1478    
  4.2076      3.7794      3.7805      4.2088      5.1468      6.7965      9.9488      15.222      22.563      31.346    
  40.642      49.358      56.258      60.114      60.115      56.259      35.772      28.458      21.146      14.754    
  9.9484      6.9154      5.2437      4.2468      3.7137      3.5500      3.7137      4.2468      5.2438      6.9155    
  9.9483      14.754      21.145      28.458      35.772      42.071      46.369      47.899      46.369      42.071    
  24.188      18.571      13.447      9.4447      6.7977      5.2432      4.2606      3.6893      3.4366      3.4356    
  3.6883      4.2615      5.2443      6.7969      9.4437      13.448      18.572      24.187      29.474      33.598    
  35.861      35.860      33.597      29.475      15.312      11.580      8.5582      6.4713      5.1479      4.2461    
  3.6883      3.4022      3.3161      3.4020      3.6882      4.2460      5.1479      6.4715      8.5585      11.580    
  15.312      19.229      22.675      25.037      25.878      25.038      22.676      19.229      9.5304      7.4980    
  6.0168      4.9709      4.2083      3.7139      3.4359      3.3153      3.3158      3.4364      3.7135      4.2079    
  4.9714      6.0173      7.4977      9.5300      11.947      14.362      16.315      17.406      17.406      16.315    
  14.362      11.946      6.4704      5.5180      4.7491      4.1681      3.7799      3.5508      3.4361      3.4019    
  3.4361      3.5510      3.7801      4.1680      4.7488      5.5177      6.4705      7.6681      9.0171      10.281    
  11.183      11.510      11.183      10.281      9.0169      7.6678      5.0188      4.5260      4.1577      3.9169    
  3.7801      3.7137      3.6887      3.6887      3.7137      3.7801      3.9169      4.1576      4.5259      5.0188    
  5.5966      6.2188      6.8491      7.3800      7.6858      7.6857      7.3800      6.8491      6.2187      5.5965    
  4.3483      4.2096      4.1574      4.1684      4.2084      4.2462      4.2610      4.2460      4.2082      4.1682    
  4.1576      4.2100      4.3485      4.5740      4.8609      5.1616      5.4220      5.5998      5.6636      5.5998    
  5.4220      5.1617      4.8611      4.5742      4.3484      4.5260      4.7488      4.9711      5.1473      5.2438    
  5.2438      5.1473      4.9712      4.7489      4.5259      4.3483      4.2474      4.2299      4.2782      4.3592    
  4.4369      4.4830      4.4829      4.4368      4.3593      4.2783      4.2299      4.2473      5.0191      5.5179    
  6.0171      6.4711      6.7970      6.9163      6.7974      6.4714      6.0170      5.5176      5.0188      4.5740    
  4.2298      3.9999      3.8692      3.8079      3.7855      3.7808      3.7858      3.8080      3.8690      3.9997    
  4.2297      4.5741      6.4705      7.4978      8.5589      9.4443      9.9484      9.9483      9.4441      8.5591    
  7.4980      6.4704      5.5965      4.8610      4.2783      3.8691      3.6140      3.4749      3.4156      3.4155    
  3.4748      3.6142      3.8693      4.2782      4.8608      5.5965      9.5302      11.580      13.447      14.753    
  15.222      14.753      13.447      11.580      9.5305      7.6683      6.2185      5.1616      4.3596      3.8079    
  3.4745      3.3050      3.2540      3.3048      3.4744      3.8080      4.3598      5.1617      6.2185      7.6680    
  15.312      18.571      21.145      22.563      22.563      21.146      18.571      15.311      11.947      9.0174    
  6.8488      5.4216      4.4372      3.7859      3.4152      3.2534      3.2541      3.4159      3.7853      4.4365    
  5.4222      6.8495      9.0169      11.946      24.187      28.459      31.346      32.366      31.347      28.460    
  24.187      19.228      14.362      10.281      7.3800      5.5992      4.4829      3.7813      3.4156      3.3042    
  3.4156      3.7815      4.4830      5.5990      7.3797      10.281      14.362      19.228      35.771      40.642    
  43.307      43.306      40.641      35.772      29.475      22.675      16.315      11.183      7.6863      5.6632    
  4.4825      3.7862      3.4753      3.4742      3.7851      4.4835      5.6644      7.6853      11.182      16.316    
  22.677      29.474      49.356      54.344      56.127      54.345      49.357      42.071      33.598      25.037    
  17.405      11.510      7.6865      5.5998      4.4361      3.8080      3.6148      3.8080      4.4361      5.5997    
  7.6865      11.510      17.405      25.038      33.598      42.070      64.152      68.595      68.596      64.153    
  56.258      46.368      35.861      25.878      17.405      11.182      7.3805      5.4224      4.3588      3.8686    
  3.8697      4.3600      5.4214      7.3792      11.183      17.407      25.877      35.860      46.369      56.259    
  78.887      81.744      78.887      71.077      60.115      47.900      35.860      25.038      16.315      10.280    
  6.8492      5.1623      4.2783      3.9991      4.2783      5.1624      6.8491      10.280      16.315      25.038    
  35.860      47.900      60.115      71.077      91.317      91.317      84.816      73.596      60.115      46.368    
  33.597      22.677      14.363      9.0165      6.2184      4.8616      4.2303      4.2294      4.8606      6.2191    
  9.0175      14.362      22.676      33.598      46.369      60.115      73.595      84.817      98.578      94.857    
  84.816      71.076      56.259      42.070      29.474      19.229      11.947      7.6680      5.5961      4.5742    
  4.2478      4.5742      5.5961      7.6680      11.947      19.229      29.474      42.070      56.259      71.076    
  84.816      94.857      87.968      78.888      66.346      52.653      39.396      27.569      17.980      11.235    
  7.3252      5.4258      4.4614      4.1545      4.4614      5.4258      7.3252      11.235      17.980      27.569    
  39.396      52.653      66.346      78.887      87.968      91.317      78.887      68.595      56.126      43.306    
  31.346      21.146      13.448      8.5583      6.0166      4.7494      4.1581      4.1572      4.7484      6.0173    
  8.5594      13.447      21.145      31.347      43.306      56.126      68.595      78.887      84.817      84.816    
  66.345      56.126      44.690      33.404      23.299      15.228      9.7094      6.6010      5.0459      4.2192    
  3.9602      4.2193      5.0459      6.6010      9.7094      15.228      23.300      33.404      44.690      56.126    
  66.345      73.595      76.241      73.596      52.653      43.306      33.404      24.063      16.218      10.526    
  7.0875      5.3030      4.3071      3.8507      3.8518      4.3082      5.3021      7.0862      10.527      16.219    
  24.063      33.404      43.307      52.654      60.114      64.309      64.310      60.115      39.396      31.346    
  23.300      16.219      10.822      7.3643      5.4745      4.3894      3.8039      3.6234      3.8039      4.3894    
  5.4745      7.3643      10.822      16.219      23.300      31.346      39.396      46.369      51.159      52.872    
  51.159      46.369      27.569      21.145      15.228      10.527      7.3654      5.5348      4.4353      3.7894    
  3.5021      3.5011      3.7883      4.4363      5.5359      7.3646      10.526      15.228      21.146      27.568    
  33.597      38.308      40.900      40.899      38.306      33.598      17.981      13.448      9.7082      7.0870    
  5.4751      4.4358      3.7855      3.4500      3.3489      3.4499      3.7855      4.4358      5.4751      7.0870    
  9.7082      13.448      17.981      22.676      26.780      29.584      30.581      29.584      26.780      22.676    
  11.236      8.5590      6.6007      5.3023      4.3890      3.7892      3.4497      3.3020      3.3027      3.4503    
  3.7885      4.3882      5.3029      6.6015      8.5587      11.236      14.363      17.441      19.904      21.273    
  21.274      19.905      17.440      14.362      7.3252      6.0172      5.0464      4.3073      3.8039      3.5019    
  3.3483      3.3021      3.3484      3.5019      3.8039      4.3073      5.0465      6.0173      7.3252      9.0170    
  10.906      12.653      13.887      14.332      13.887      12.653      10.906      9.0170      5.4252      4.7491    
  4.2193      3.8511      3.6240      3.5016      3.4500      3.4499      3.5016      3.6243      3.8514      4.2191    
  4.7487      5.4251      6.2189      7.1457      8.1105      8.9240      9.3908      9.3906      8.9236      8.1104    
  7.1456      6.2187      4.4614      4.1577      3.9596      3.8513      3.8039      3.7888      3.7860      3.7888    
  3.8039      3.8513      3.9596      4.1577      4.4614      4.8609      5.3156      5.7688      6.1773      6.4705    
  6.5778      6.4705      6.1773      5.7688      5.3155      4.8609      4.1550      4.1576      4.2192      4.3077    
  4.3888      4.4360      4.4357      4.3884      4.3076      4.2193      4.1576      4.1551      4.2300      4.3773    
  4.5697      4.7659      4.9233      5.0100      5.0099      4.9232      4.7662      4.5701      4.3772      4.2297    
  4.4614      4.7489      5.0465      5.3025      5.4745      5.5356      5.4745      5.3025      5.0465      4.7489    
  4.4614      4.2298      4.0799      4.0119      4.0051      4.0295      4.0569      4.0682      4.0569      4.0295    
  4.0051      4.0120      4.0800      4.2298      5.4253      6.0170      6.6010      7.0867      7.3649      7.3651    
  7.0870      6.6012      6.0170      5.4250      4.8610      4.3772      4.0118      3.7681      3.6247      3.5512    
  3.5218      3.5218      3.5513      3.6245      3.7678      4.0117      4.3773      4.8612      7.3253      8.5590    
  9.7087      10.527      10.823      10.527      9.7087      8.5590      7.3254      6.2188      5.3155      4.5698    
  4.0053      3.6246      3.3967      3.2809      3.2461      3.2808      3.3967      3.6246      4.0053      4.5698    
  5.3154      6.2187      11.236      13.448      15.228      16.218      16.219      15.228      13.447      11.236    
  9.0174      7.1460      5.7686      4.7657      4.0298      3.5515      3.2806      3.1623      3.1627      3.2811    
  3.5510      4.0295      4.7664      5.7691      7.1453      9.0166      17.980      21.146      23.300      24.063    
  23.300      21.146      17.980      14.362      10.906      8.1111      6.1773      4.9228      4.0569      3.5223    
  3.2460      3.1620      3.2460      3.5223      4.0569      4.9228      6.1773      8.1111      10.906      14.362    
  27.568      31.347      33.404      33.404      31.346      27.569      22.677      17.440      12.652      8.9243    
  6.4710      5.0095      4.0676      3.5223      3.2813      3.2804      3.5213      4.0686      5.0104      6.4699    
  8.9233      12.653      17.441      22.676      39.396      43.306      44.690      43.306      39.396      33.598    
  26.781      19.904      13.886      9.3907      6.5786      5.0099      4.0561      3.5512      3.3975      3.5513    
  4.0561      5.0099      6.5786      9.3907      13.886      19.904      26.781      33.598      52.653      56.126    
  56.126      52.654      46.368      38.307      29.585      21.274      14.332      9.3902      6.4711      4.9238    
  4.0291      3.6240      3.6251      4.0303      4.9227      6.4699      9.3912      14.333      21.273      29.583    
  38.307      46.369      66.346      68.594      66.346      60.115      51.159      40.899      30.581      21.274    
  13.887      8.9230      6.1773      4.7668      4.0051      3.7672      4.0051      4.7668      6.1773      8.9230    
  13.887      21.274      30.581      40.899      51.159      60.115      78.887      78.887      73.595      64.310    
  52.873      40.899      29.584      19.905      12.653      8.1099      5.7684      4.5705      4.0123      4.0112    
  4.5694      5.7693      8.1110      12.652      19.904      29.584      40.900      52.873      64.310      73.596    
  87.968      84.816      76.239      64.310      51.159      38.307      26.780      17.441      10.907      7.1455    
  5.3150      4.3773      4.0805      4.3773      5.3150      7.1455      10.907      17.441      26.780      38.307    
  51.159      64.310      76.239      84.816      91.317      84.817      73.595      60.115      46.369      33.598    
  22.676      14.362      9.0175      6.2191      4.8606      4.2294      4.2303      4.8616      6.2184      9.0165    
  14.363      22.677      33.597      46.368      60.115      73.596      84.816      91.317      73.529      64.153    
  52.654      40.681      29.422      19.822      12.636      8.1313      5.8047      4.6123      4.0565      4.0556    
  4.6113      5.8055      8.1322      12.636      19.821      29.423      40.682      52.654      64.152      73.529    
  78.887      78.887      64.152      54.345      43.307      32.367      22.562      14.753      9.4448      6.4713    
  4.9706      4.1682      3.9175      4.1684      4.9705      6.4711      9.4448      14.753      22.563      32.367    
  43.307      54.345      64.152      71.076      73.596      71.076      52.653      43.306      33.404      24.063    
  16.218      10.526      7.0875      5.3030      4.3071      3.8507      3.8518      4.3082      5.3021      7.0862    
  10.527      16.219      24.063      33.404      43.307      52.654      60.114      64.309      64.310      60.115    
  40.681      32.366      24.063      16.742      11.138      7.5279      5.5561      4.4394      3.8356      3.6492    
  3.8356      4.4395      5.5561      7.5277      11.138      16.742      24.063      32.367      40.681      47.900    
  52.873      54.655      52.873      47.901      29.423      22.562      16.218      11.139      7.6897      5.6950    
  4.5301      3.8434      3.5372      3.5362      3.8424      4.5310      5.6961      7.6888      11.138      16.219    
  22.564      29.422      35.860      40.900      43.681      43.680      40.899      35.861      19.822      14.753    
  10.526      7.5285      5.6960      4.5632      3.8515      3.4827      3.3713      3.4825      3.8515      4.5634    
  5.6961      7.5283      10.526      14.753      19.822      25.038      29.584      32.690      33.795      32.690    
  29.583      25.038      12.636      9.4446      7.0867      5.5558      4.5308      3.8524      3.4666      3.2986    
  3.2992      3.4673      3.8518      4.5302      5.5563      7.0873      9.4439      12.635      16.315      19.905    
  22.762      24.345      24.346      22.762      19.904      16.315      8.1316      6.4716      5.3025      4.4385    
  3.8430      3.4830      3.2989      3.2432      3.2989      3.4830      3.8429      4.4383      5.3025      6.4717    
  8.1318      10.280      12.652      14.822      16.344      16.892      16.345      14.822      12.653      10.280    
  5.8050      4.9713      4.3076      3.8354      3.5367      3.3709      3.2990      3.2988      3.3707      3.5369    
  3.8356      4.3074      4.9711      5.8052      6.8493      8.1105      9.4237      10.523      11.151      11.150    
  10.523      9.4238      8.1107      6.8491      4.6119      4.1682      3.8512      3.6498      3.5366      3.4825    
  3.4670      3.4826      3.5367      3.6499      3.8513      4.1682      4.6117      5.1615      5.7688      6.4091    
  7.0112      7.4489      7.6095      7.4487      7.0109      6.4089      5.7689      5.1618      4.0561      3.9169    
  3.8513      3.8355      3.8429      3.8521      3.8521      3.8428      3.8356      3.8513      3.9169      4.0561    
  4.2783      4.5698      4.8932      5.1972      5.4330      5.5640      5.5640      5.4329      5.1972      4.8933    
  4.5697      4.2782      4.0560      4.1684      4.3077      4.4387      4.5306      4.5635      4.5305      4.4385    
  4.3075      4.1684      4.0561      3.9998      4.0119      4.0835      4.1887      4.2945      4.3711      4.3989    
  4.3712      4.2947      4.1890      4.0836      4.0117      3.9995      4.6117      4.9712      5.3025      5.5560    
  5.6956      5.6956      5.5561      5.3025      4.9711      4.6117      4.2783      4.0118      3.8300      3.7268    
  3.6809      3.6672      3.6657      3.6658      3.6672      3.6808      3.7268      3.8301      4.0119      4.2783    
  5.8051      6.4711      7.0866      7.5282      7.6892      7.5284      7.0869      6.4714      5.8051      5.1615    
  4.5697      4.0834      3.7268      3.4920      3.3536      3.2839      3.2630      3.2838      3.3535      3.4918    
  3.7267      4.0834      4.5700      5.1618      8.1319      9.4443      10.526      11.138      11.138      10.527    
  9.4441      8.1317      6.8493      5.7689      4.8931      4.1886      3.6809      3.3537      3.1680      3.0861    
  3.0863      3.1682      3.3536      3.6808      4.1888      4.8933      5.7687      6.8490      12.636      14.754    
  16.219      16.741      16.218      14.753      12.636      10.280      8.1107      6.4095      5.1972      4.2943    
  3.6672      3.2843      3.0863      3.0259      3.0862      3.2843      3.6674      4.2944      5.1972      6.4093    
  8.1104      10.280      19.821      22.563      24.063      24.063      22.563      19.822      16.315      12.652    
  9.4234      7.0116      5.4333      4.3707      3.6654      3.2634      3.0866      3.0859      3.2627      3.6661    
  4.3714      5.4326      7.0109      9.4240      12.653      16.315      29.422      32.367      33.405      32.367    
  29.422      25.038      19.905      14.822      10.522      7.4489      5.5646      4.3988      3.6651      3.2838    
  3.1687      3.2840      3.6651      4.3986      5.5644      7.4488      10.522      14.822      19.905      25.038    
  40.681      43.306      43.307      40.681      35.860      29.584      22.762      16.345      11.150      7.6090    
  5.5645      4.3717      3.6667      3.3530      3.3541      3.6679      4.3706      5.5633      7.6099      11.151    
  16.344      22.761      29.585      35.861      52.654      54.344      52.653      47.900      40.900      32.690    
  24.346      16.893      11.151      7.4480      5.4329      4.2955      3.6809      3.4911      3.6808      4.2955    
  5.4330      7.4481      11.151      16.893      24.345      32.689      40.900      47.901      64.153      64.152    
  60.114      52.873      43.681      33.794      24.345      16.345      10.523      7.0104      5.1966      4.1894    
  3.7273      3.7261      4.1882      5.1977      7.0117      10.523      16.344      24.346      33.795      43.680    
  52.872      60.115      73.529      71.076      64.309      54.656      43.681      32.690      22.761      14.822    
  9.4243      6.4089      4.8925      4.0834      3.8307      4.0834      4.8925      6.4089      9.4243      14.822    
  22.761      32.690      43.681      54.656      64.309      71.076      78.887      73.596      64.310      52.873    
  40.900      29.584      19.904      12.652      8.1110      5.7693      4.5694      4.0112      4.0123      4.5705    
  5.7684      8.1099      12.653      19.905      29.584      40.899      52.873      64.310      73.595      78.887    
  78.887      71.077      60.115      47.900      35.860      25.038      16.315      10.280      6.8491      5.1624    
  4.2783      3.9991      4.2783      5.1623      6.8492      10.280      16.315      25.038      35.860      47.900    
  60.115      71.077      78.887      81.744      58.077      49.358      39.397      29.422      20.477      13.424    
  8.7141      6.1124      4.7563      4.0238      3.7963      4.0238      4.7563      6.1124      8.7141      13.424    
  20.477      29.422      39.397      49.358      58.077      64.152      66.346      64.152      49.357      40.641    
  31.347      22.563      15.221      9.9479      6.7977      5.1478      4.2076      3.7794      3.7805      4.2088    
  5.1468      6.7965      9.9488      15.222      22.563      31.346      40.642      49.358      56.258      60.114    
  60.115      56.259      39.396      31.346      23.300      16.219      10.822      7.3643      5.4745      4.3894    
  3.8039      3.6234      3.8039      4.3894      5.4745      7.3643      10.822      16.219      23.300      31.346    
  39.396      46.369      51.159      52.872      51.159      46.369      29.423      22.562      16.218      11.139    
  7.6897      5.6950      4.5301      3.8434      3.5372      3.5362      3.8424      4.5310      5.6961      7.6888    
  11.138      16.219      22.564      29.422      35.860      40.900      43.681      43.680      40.899      35.861    
  20.479      15.221      10.822      7.6893      5.7751      4.6082      3.8748      3.4941      3.3792      3.4941    
  3.8748      4.6082      5.7751      7.6893      10.822      15.221      20.479      25.877      30.580      33.795    
  34.938      33.795      30.580      25.877      13.425      9.9487      7.3646      5.6951      4.6085      3.8881    
  3.4773      3.2982      3.2989      3.4780      3.8874      4.6079      5.6959      7.3654      9.9480      13.424    
  17.406      21.274      24.345      26.046      26.047      24.346      21.273      17.406      8.7134      6.7976    