unknown system                          
   1.00000000000000     
     2.660701    0.000000    0.000000
     1.330351    2.304235    0.000000
     1.330351    0.768078    2.172454
   Ag
     1
Direct
  0.000000  0.000000  0.000000
 
   24   24   24
 0.10251937177E+03 0.98577118268E+02 0.87967557299E+02 0.73529492593E+02 0.58077825201E+02
 0.43396557678E+02 0.30421586444E+02 0.19862313656E+02 0.12320218029E+02 0.78574662284E+01
 0.56951208691E+01 0.46434992660E+01 0.43066705538E+01 0.46434992660E+01 0.56951208691E+01
 0.78574662284E+01 0.12320218029E+02 0.19862313656E+02 0.30421586444E+02 0.43396557678E+02
 0.58077825201E+02 0.73529492593E+02 0.87967557299E+02 0.98577118268E+02 0.98577344857E+02
 0.91316367060E+02 0.78886899296E+02 0.64152310816E+02 0.49357943136E+02 0.35771893639E+02
 0.24187120022E+02 0.15311069424E+02 0.95304121590E+01 0.64707022553E+01 0.50185571737E+01
 0.43479099323E+01 0.43486174323E+01 0.50193776334E+01 0.64701911185E+01 0.95296500758E+01
 0.15311500926E+02 0.24187802785E+02 0.35771359182E+02 0.49356951807E+02 0.64152382714E+02
 0.78887699833E+02 0.91316718027E+02 0.98577310782E+02 0.87967832882E+02 0.78887563088E+02
 0.66345839984E+02 0.52653231011E+02 0.39396398250E+02 0.27568722636E+02 0.17980156893E+02
 0.11235496416E+02 0.73252156304E+01 0.54257502886E+01 0.44614134643E+01 0.41544774344E+01
 0.44614262438E+01 0.54257573194E+01 0.73252028407E+01 0.11235472302E+02 0.17980145341E+02
 0.27568732626E+02 0.39396407178E+02 0.52653195890E+02 0.66345741843E+02 0.78887433415E+02
 0.87967739812E+02 0.91316507412E+02 0.73529082630E+02 0.64152947369E+02 0.52654078177E+02
 0.40680518193E+02 0.29421780614E+02 0.19821920700E+02 0.12636243295E+02 0.81312505297E+01
 0.58047029820E+01 0.46123205037E+01 0.40565150172E+01 0.40555791988E+01 0.46112863498E+01
 0.58054557808E+01 0.81321987286E+01 0.12635531583E+02 0.19821063165E+02 0.29422645690E+02
 0.40681671671E+02 0.52653529243E+02 0.64151759666E+02 0.73529026400E+02 0.78887406175E+02
 0.78887063281E+02 0.58076857043E+02 0.49357716547E+02 0.39397090825E+02 0.29422190577E+02
 0.20477318744E+02 0.13424430956E+02 0.87141351704E+01 0.61123555095E+01 0.47562961180E+01
 0.40237503574E+01 0.37963281151E+01 0.40237587369E+01 0.47563040874E+01 0.61123541241E+01
 0.87141252884E+01 0.13424423017E+02 0.20477325741E+02 0.29422217229E+02 0.39397129239E+02
 0.49357755421E+02 0.58076885607E+02 0.64152169630E+02 0.66346434418E+02 0.64152156124E+02
 0.43396040093E+02 0.35771149465E+02 0.27568803017E+02 0.19822028322E+02 0.13423913371E+02
 0.89252736435E+01 0.62881146632E+01 0.48604910885E+01 0.40244753194E+01 0.36478094743E+01
 0.36489236067E+01 0.40256877389E+01 0.48595737002E+01 0.62870090366E+01 0.89261231410E+01
 0.13424822392E+02 0.19820930869E+02 0.27567655865E+02 0.35772136388E+02 0.43397378055E+02
 0.49357237836E+02 0.52653421621E+02 0.52654150678E+02 0.49357695981E+02 0.30421862027E+02
 0.24186665460E+02 0.17980156893E+02 0.12636514483E+02 0.87134425956E+01 0.62869159272E+01
 0.48971212696E+01 0.40338916779E+01 0.35780837316E+01 0.34387227906E+01 0.35780740902E+01
 0.40338827256E+01 0.48971208285E+01 0.62869157128E+01 0.87134262622E+01 0.12636473784E+02
 0.17980104870E+02 0.24186633239E+02 0.30421867039E+02 0.35772299954E+02 0.39396436665E+02
 0.40680580556E+02 0.39396407178E+02 0.35772266922E+02 0.19862704527E+02 0.15310905143E+02
 0.11235542748E+02 0.81320513633E+01 0.61127463799E+01 0.48595826331E+01 0.40328196565E+01
 0.35585051119E+01 0.33497479713E+01 0.33488165216E+01 0.35574684903E+01 0.40335314167E+01
 0.48604943261E+01 0.61121297958E+01 0.81314038415E+01 0.11236412374E+02 0.15311627236E+02
 0.19861680746E+02 0.24186923520E+02 0.27568564321E+02 0.29422608099E+02 0.29421844856E+02
 0.27567904552E+02 0.24187967066E+02 0.12320322744E+02 0.95301855697E+01 0.73248353313E+01
 0.58051129452E+01 0.47573689920E+01 0.40249929044E+01 0.35777034325E+01 0.33493571009E+01
 0.32808170824E+01 0.33493524060E+01 0.35777011247E+01 0.40250009147E+01 0.47573899314E+01
 0.58051413938E+01 0.73248556410E+01 0.95301897658E+01 0.12320302904E+02 0.15311236365E+02
 0.17979724571E+02 0.19821448454E+02 0.20478398615E+02 0.19821473129E+02 0.17979765042E+02
 0.15311274337E+02 0.78576102450E+01 0.64706196827E+01 0.54251690687E+01 0.46117665238E+01
 0.40238943740E+01 0.36484710759E+01 0.34392599250E+01 0.33490633754E+01 0.33494964226E+01
 0.34398024145E+01 0.36482627547E+01 0.40234662209E+01 0.46118402326E+01 0.54253006520E+01
 0.64703307259E+01 0.78575442035E+01 0.95303337825E+01 0.11236165520E+02 0.12635648617E+02
 0.13424160790E+02 0.13424567033E+02 0.12636085562E+02 0.11235765489E+02 0.95297326484E+01
 0.56953964526E+01 0.50188405774E+01 0.44614134643E+01 0.40560482395E+01 0.37956355403E+01
 0.36484628362E+01 0.35780740902E+01 0.35578025463E+01 0.35780814238E+01 0.36484635857E+01
 0.37956179883E+01 0.40560233648E+01 0.44614024992E+01 0.50188658163E+01 0.56954532693E+01
 0.64704179281E+01 0.73252359401E+01 0.81318515263E+01 0.87134262622E+01 0.89255487416E+01
 0.87134327137E+01 0.81318455798E+01 0.73252028407E+01 0.64703608933E+01 0.46435263509E+01
 0.43481094366E+01 0.41548875528E+01 0.40560162470E+01 0.40237858219E+01 0.40251430689E+01
 0.40331744896E+01 0.40331676313E+01 0.40250279996E+01 0.40235831525E+01 0.40560530943E+01
 0.41552649845E+01 0.43483744420E+01 0.46433117751E+01 0.50187819169E+01 0.54251837203E+01
 0.58051684788E+01 0.61124935812E+01 0.62875697788E+01 0.62875537066E+01 0.61123812091E+01
 0.58050187326E+01 0.54252930311E+01 0.50191781291E+01 0.43064659641E+01 0.43483908430E+01
 0.44613552500E+01 0.46116963131E+01 0.47570676559E+01 0.48600912852E+01 0.48970498347E+01
 0.48601034557E+01 0.47570806260E+01 0.46116962160E+01 0.44613315055E+01 0.43483473570E+01
 0.43064152315E+01 0.43483473570E+01 0.44613315055E+01 0.46116962160E+01 0.47570806260E+01
 0.48601034557E+01 0.48970498347E+01 0.48600912852E+01 0.47570676559E+01 0.46116963131E+01
 0.44613552500E+01 0.43483908430E+01 0.46435263509E+01 0.50191781291E+01 0.54252930311E+01
 0.58050187326E+01 0.61123812091E+01 0.62875537066E+01 0.62875697788E+01 0.61124935812E+01
 0.58051684788E+01 0.54251837203E+01 0.50187819169E+01 0.46433117751E+01 0.43483744420E+01
 0.41552649845E+01 0.40560530943E+01 0.40235831525E+01 0.40250279996E+01 0.40331676313E+01
 0.40331744896E+01 0.40251430689E+01 0.40237858219E+01 0.40560162470E+01 0.41548875528E+01
 0.43481094366E+01 0.56953964526E+01 0.64703608933E+01 0.73252028407E+01 0.81318455798E+01
 0.87134327137E+01 0.89255487416E+01 0.87134262622E+01 0.81318515263E+01 0.73252359401E+01
 0.64704179281E+01 0.56954532693E+01 0.50188658163E+01 0.44614024992E+01 0.40560233648E+01
 0.37956179883E+01 0.36484635857E+01 0.35780814238E+01 0.35578025463E+01 0.35780740902E+01
 0.36484628362E+01 0.37956355403E+01 0.40560482395E+01 0.44614134643E+01 0.50188405774E+01
 0.78576102450E+01 0.95297326484E+01 0.11235765489E+02 0.12636085562E+02 0.13424567033E+02
 0.13424160790E+02 0.12635648617E+02 0.11236165520E+02 0.95303337825E+01 0.78575442035E+01
 0.64703307259E+01 0.54253006520E+01 0.46118402326E+01 0.40234662209E+01 0.36482627547E+01
 0.34398024145E+01 0.33494964226E+01 0.33490633754E+01 0.34392599250E+01 0.36484710759E+01
 0.40238943740E+01 0.46117665238E+01 0.54251690687E+01 0.64706196827E+01 0.12320322744E+02
 0.15311274337E+02 0.17979765042E+02 0.19821473129E+02 0.20478398615E+02 0.19821448454E+02
 0.17979724571E+02 0.15311236365E+02 0.12320302904E+02 0.95301897658E+01 0.73248556410E+01
 0.58051413938E+01 0.47573899314E+01 0.40250009147E+01 0.35777011247E+01 0.33493524060E+01
 0.32808170824E+01 0.33493571009E+01 0.35777034325E+01 0.40249929044E+01 0.47573689920E+01
 0.58051129452E+01 0.73248353313E+01 0.95301855697E+01 0.19862704527E+02 0.24187967066E+02
 0.27567904552E+02 0.29421844856E+02 0.29422608099E+02 0.27568564321E+02 0.24186923520E+02
 0.19861680746E+02 0.15311627236E+02 0.11236412374E+02 0.81314038415E+01 0.61121297958E+01
 0.48604943261E+01 0.40335314167E+01 0.35574684903E+01 0.33488165216E+01 0.33497479713E+01
 0.35585051119E+01 0.40328196565E+01 0.48595826331E+01 0.61127463799E+01 0.81320513633E+01
 0.11235542748E+02 0.15310905143E+02 0.30421862027E+02 0.35772266922E+02 0.39396407178E+02
 0.40680580556E+02 0.39396436665E+02 0.35772299954E+02 0.30421867039E+02 0.24186633239E+02
 0.17980104870E+02 0.12636473784E+02 0.87134262622E+01 0.62869157128E+01 0.48971208285E+01
 0.40338827256E+01 0.35780740902E+01 0.34387227906E+01 0.35780837316E+01 0.40338916779E+01
 0.48971212696E+01 0.62869159272E+01 0.87134425956E+01 0.12636514483E+02 0.17980156893E+02
 0.24186665460E+02 0.43396040093E+02 0.49357695981E+02 0.52654150678E+02 0.52653421621E+02
 0.49357237836E+02 0.43397378055E+02 0.35772136388E+02 0.27567655865E+02 0.19820930869E+02
 0.13424822392E+02 0.89261231410E+01 0.62870090366E+01 0.48595737002E+01 0.40256877389E+01
 0.36489236067E+01 0.36478094743E+01 0.40244753194E+01 0.48604910885E+01 0.62881146632E+01
 0.89252736435E+01 0.13423913371E+02 0.19822028322E+02 0.27568803017E+02 0.35771149465E+02
 0.58076857043E+02 0.64152156124E+02 0.66346434418E+02 0.64152169630E+02 0.58076885607E+02
 0.49357755421E+02 0.39397129239E+02 0.29422217229E+02 0.20477325741E+02 0.13424423017E+02
 0.87141252884E+01 0.61123541241E+01 0.47563040874E+01 0.40237587369E+01 0.37963281151E+01
 0.40237503574E+01 0.47562961180E+01 0.61123555095E+01 0.87141351704E+01 0.13424430956E+02
 0.20477318744E+02 0.29422190577E+02 0.39397090825E+02 0.49357716547E+02 0.73529082630E+02
 0.78887063281E+02 0.78887406175E+02 0.73529026400E+02 0.64151759666E+02 0.52653529243E+02
 0.40681671671E+02 0.29422645690E+02 0.19821063165E+02 0.12635531583E+02 0.81321987286E+01
 0.58054557808E+01 0.46112863498E+01 0.40555791988E+01 0.40565150172E+01 0.46123205037E+01
 0.58047029820E+01 0.81312505297E+01 0.12636243295E+02 0.19821920700E+02 0.29421780614E+02
 0.40680518193E+02 0.52654078177E+02 0.64152947369E+02 0.87967832882E+02 0.91316507412E+02
 0.87967739812E+02 0.78887433415E+02 0.66345741843E+02 0.52653195890E+02 0.39396407178E+02
 0.27568732626E+02 0.17980145341E+02 0.11235472302E+02 0.73252028407E+01 0.54257573194E+01
 0.44614262438E+01 0.41544774344E+01 0.44614134643E+01 0.54257502886E+01 0.73252156304E+01
 0.11235496416E+02 0.17980156893E+02 0.27568722636E+02 0.39396398250E+02 0.52653231011E+02
 0.66345839984E+02 0.78887563088E+02 0.98577344857E+02 0.98577310782E+02 0.91316718027E+02
 0.78887699833E+02 0.64152382714E+02 0.49356951807E+02 0.35771359182E+02 0.24187802785E+02
 0.15311500926E+02 0.95296500758E+01 0.64701911185E+01 0.50193776334E+01 0.43486174323E+01
 0.43479099323E+01 0.50185571737E+01 0.64707022553E+01 0.95304121590E+01 0.15311069424E+02
 0.24187120022E+02 0.35771893639E+02 0.49357943136E+02 0.64152310816E+02 0.78886899296E+02
 0.91316367060E+02 0.98577344857E+02 0.91316367060E+02 0.78886899296E+02 0.64152310816E+02
 0.49357943136E+02 0.35771893639E+02 0.24187120022E+02 0.15311069424E+02 0.95304121590E+01
 0.64707022553E+01 0.50185571737E+01 0.43479099323E+01 0.43486174323E+01 0.50193776334E+01
 0.64701911185E+01 0.95296500758E+01 0.15311500926E+02 0.24187802785E+02 0.35771359182E+02
 0.49356951807E+02 0.64152382714E+02 0.78887699833E+02 0.91316718027E+02 0.98577310782E+02
 0.91316025728E+02 0.81743734035E+02 0.68594883829E+02 0.54344238869E+02 0.40641778343E+02
 0.28459411635E+02 0.18571155628E+02 0.11579227393E+02 0.74976948462E+01 0.55182230267E+01
 0.45260183822E+01 0.42092001566E+01 0.45258784969E+01 0.55182313983E+01 0.74979247891E+01
 0.11579418900E+02 0.18571087156E+02 0.28459049968E+02 0.40641185815E+02 0.54343718150E+02
 0.68595020425E+02 0.81744709759E+02 0.91317040032E+02 0.94856484299E+02 0.78886738199E+02
 0.68595163533E+02 0.56126243101E+02 0.43305924246E+02 0.31346312493E+02 0.21146062833E+02
 0.13447934973E+02 0.85583092833E+01 0.60165885495E+01 0.47494091180E+01 0.41580538149E+01
 0.41571679789E+01 0.47484269433E+01 0.60173390650E+01 0.85593545244E+01 0.13447411667E+02
 0.21145111225E+02 0.31346604657E+02 0.43306480712E+02 0.56125712531E+02 0.68594662272E+02
 0.78887485645E+02 0.84816514782E+02 0.84815831031E+02 0.64151984606E+02 0.54344628081E+02
 0.43306860909E+02 0.32366841508E+02 0.22562293014E+02 0.14753224138E+02 0.94448470319E+01
 0.64713345947E+01 0.49705598764E+01 0.41682186037E+01 0.39175003554E+01 0.41683704930E+01
 0.49705440256E+01 0.64711156366E+01 0.94447565822E+01 0.14753403442E+02 0.22562535884E+02
 0.32366999289E+02 0.43306946383E+02 0.54344522219E+02 0.64151562882E+02 0.71075991096E+02
 0.73595785708E+02 0.71076441943E+02 0.49357230793E+02 0.40641344392E+02 0.31347177371E+02
 0.22563390759E+02 0.15220808695E+02 0.99478573508E+01 0.67977494484E+01 0.51478440711E+01
 0.42076264598E+01 0.37794148646E+01 0.37805446384E+01 0.42088233348E+01 0.51468114744E+01
 0.67965314772E+01 0.99487969097E+01 0.15222048194E+02 0.22562636917E+02 0.31346103819E+02
 0.40642077877E+02 0.49358173233E+02 0.56258077571E+02 0.60114092187E+02 0.60114933056E+02
 0.56258847527E+02 0.35771606197E+02 0.28458321648E+02 0.21145745384E+02 0.14753949676E+02
 0.99483570080E+01 0.69154437686E+01 0.52436696239E+01 0.42467878495E+01 0.37136924692E+01
 0.35499769964E+01 0.37137203013E+01 0.42468362142E+01 0.52437511987E+01 0.69155350990E+01
 0.99483469445E+01 0.14753754268E+02 0.21145482924E+02 0.28458235017E+02 0.35771800541E+02
 0.42071384899E+02 0.46368875648E+02 0.47899420653E+02 0.46368636062E+02 0.42071051714E+02
 0.24187806584E+02 0.18570690953E+02 0.13447123859E+02 0.94446951539E+01 0.67977410729E+01
 0.52432491467E+01 0.42606340045E+01 0.36892680432E+01 0.34366005921E+01 0.34356395580E+01
 0.36882641037E+01 0.42615265071E+01 0.52442547757E+01 0.67969170429E+01 0.94437466164E+01
 0.13447960190E+02 0.18571653597E+02 0.24186988244E+02 0.29474137084E+02 0.33597694542E+02
 0.35860686785E+02 0.35859981775E+02 0.33597148927E+02 0.29475186845E+02 0.15311865608E+02
 0.11579681728E+02 0.85581675824E+01 0.64713128867E+01 0.51478690537E+01 0.42461297321E+01
 0.36883429014E+01 0.34021503987E+01 0.33160947529E+01 0.34020484490E+01 0.36882166511E+01
 0.42460398991E+01 0.51478649214E+01 0.64714713659E+01 0.85584906736E+01 0.11579957383E+02
 0.15311810643E+02 0.19228530553E+02 0.22675373886E+02 0.25037387765E+02 0.25877707617E+02
 0.25037732932E+02 0.22675909030E+02 0.19228954029E+02 0.95304001500E+01 0.74980129452E+01
 0.60167860838E+01 0.49709397912E+01 0.42083267938E+01 0.37139419755E+01 0.34359384496E+01
 0.33153494708E+01 0.33157940716E+01 0.34363934642E+01 0.37135179776E+01 0.42078772733E+01
 0.49713679949E+01 0.60172729797E+01 0.74976749712E+01 0.95300211288E+01 0.11946583120E+02
 0.14362408351E+02 0.16314959201E+02 0.17405678561E+02 0.17406148819E+02 0.16315494600E+02
 0.14362092082E+02 0.11946199175E+02 0.64703916623E+01 0.55179802968E+01 0.47491257989E+01
 0.41681128792E+01 0.37798980852E+01 0.35508242538E+01 0.34360890709E+01 0.34018688147E+01
 0.34361231848E+01 0.35510100730E+01 0.37801074655E+01 0.41680358621E+01 0.47487709918E+01
 0.55177382024E+01 0.64704925947E+01 0.76681184082E+01 0.90170541343E+01 0.10280776627E+02
 0.11182694329E+02 0.11509681324E+02 0.11182639938E+02 0.10280675071E+02 0.90168522599E+01
 0.76678461698E+01 0.50187800171E+01 0.45259871302E+01 0.41577008649E+01 0.39169136238E+01
 0.37800812523E+01 0.37137397283E+01 0.36887222675E+01 0.36887010845E+01 0.37137179369E+01
 0.37800937141E+01 0.39169102703E+01 0.41576440721E+01 0.45259405837E+01 0.50188185279E+01
 0.55965519851E+01 0.62187891600E+01 0.68491347401E+01 0.73799715321E+01 0.76857531533E+01
 0.76857433811E+01 0.73799609149E+01 0.68491293843E+01 0.62187462428E+01 0.55964688903E+01
 0.43482857361E+01 0.42096428647E+01 0.41574386322E+01 0.41683526609E+01 0.42084309623E+01
 0.42461731245E+01 0.42610193971E+01 0.42460437749E+01 0.42082000715E+01 0.41682050657E+01
 0.41575753601E+01 0.42099696122E+01 0.43484587648E+01 0.45740382243E+01 0.48608561157E+01
 0.51615806885E+01 0.54220187608E+01 0.55998113235E+01 0.56636050270E+01 0.55997595934E+01
 0.54220065734E+01 0.51617265481E+01 0.48611277542E+01 0.45741841562E+01 0.43484380797E+01
 0.45260300765E+01 0.47487881187E+01 0.49710872330E+01 0.51473444648E+01 0.52438353038E+01
 0.52437608764E+01 0.51472873017E+01 0.49712006513E+01 0.47488726032E+01 0.45259066799E+01
 0.43483039710E+01 0.42473913119E+01 0.42299097041E+01 0.42782180348E+01 0.43592193248E+01
 0.44368896784E+01 0.44830114244E+01 0.44829177640E+01 0.44367956968E+01 0.43593151648E+01
 0.42783289080E+01 0.42298532057E+01 0.42473424829E+01 0.50190567298E+01 0.55178652276E+01
 0.60170617614E+01 0.64711345848E+01 0.67970108123E+01 0.69162589156E+01 0.67973723882E+01
 0.64714191050E+01 0.60170015761E+01 0.55176147616E+01 0.50188372086E+01 0.45739978367E+01
 0.42298098106E+01 0.39999190051E+01 0.38692268799E+01 0.38078704790E+01 0.37855236731E+01
 0.37807630977E+01 0.37857531981E+01 0.38079585515E+01 0.38690176261E+01 0.39996577473E+01
 0.42297337278E+01 0.45741044119E+01 0.64704752649E+01 0.74978064645E+01 0.85589293208E+01
 0.94442540512E+01 0.99484086940E+01 0.99482860912E+01 0.94441325266E+01 0.85590584161E+01
 0.74979511865E+01 0.64703997101E+01 0.55964797315E+01 0.48610093597E+01 0.42783324155E+01
 0.38691334050E+01 0.36140270967E+01 0.34748922193E+01 0.34156067817E+01 0.34154721597E+01
 0.34747523153E+01 0.36141575873E+01 0.38692792434E+01 0.42782132299E+01 0.48608492610E+01
 0.55965411439E+01 0.95302120463E+01 0.11579843740E+02 0.13447480699E+02 0.14753391566E+02
 0.15221852690E+02 0.14753085479E+02 0.13447257348E+02 0.11579967215E+02 0.95305396515E+01
 0.76682817751E+01 0.62185245610E+01 0.51615866446E+01 0.43595723138E+01 0.38079102857E+01
 0.34745474273E+01 0.33049634474E+01 0.32540237082E+01 0.33047881136E+01 0.34744302211E+01
 0.38080019275E+01 0.43597902423E+01 0.51617489443E+01 0.62185054927E+01 0.76680433987E+01
 0.15311582874E+02 0.18571483710E+02 0.21145197608E+02 0.22562817969E+02 0.22563431207E+02
 0.21145819914E+02 0.18570893788E+02 0.15310976188E+02 0.11946677076E+02 0.90174074852E+01
 0.68488340273E+01 0.54216062513E+01 0.44371509783E+01 0.37858777767E+01 0.34152298129E+01
 0.32534158458E+01 0.32540655398E+01 0.34159012772E+01 0.37852622497E+01 0.44364728606E+01
 0.54221705535E+01 0.68494743891E+01 0.90168631709E+01 0.11946105218E+02 0.24187487729E+02
 0.28459269043E+02 0.31346312257E+02 0.32366420938E+02 0.31346584754E+02 0.28459544080E+02
 0.24187432947E+02 0.19227886205E+02 0.14362141230E+02 0.10281238433E+02 0.73799784832E+01
 0.55991776923E+01 0.44829149331E+01 0.37813483437E+01 0.34155551278E+01 0.33041565060E+01
 0.34155509179E+01 0.37814589860E+01 0.44830316909E+01 0.55990399316E+01 0.73796626014E+01
 0.10281161665E+02 0.14362477672E+02 0.19228285163E+02 0.35771064743E+02 0.40641651600E+02
 0.43306628539E+02 0.43305855868E+02 0.40641113304E+02 0.35772324110E+02 0.29475096024E+02
 0.22675355017E+02 0.16314661453E+02 0.11183187565E+02 0.76862539300E+01 0.56631705720E+01
 0.44824572828E+01 0.37862456889E+01 0.34753253455E+01 0.34741864109E+01 0.37850621689E+01
 0.44835323781E+01 0.56643780359E+01 0.76852774102E+01 0.11182066499E+02 0.16315713901E+02
 0.22676621101E+02 0.29474227905E+02 0.49356495293E+02 0.54344151067E+02 0.56126803057E+02
 0.54344507651E+02 0.49356966466E+02 0.42070732562E+02 0.33598017365E+02 0.25037394904E+02
 0.17405185390E+02 0.11509862486E+02 0.76865061465E+01 0.55997628569E+01 0.44361358462E+01
 0.38080160149E+01 0.36148413069E+01 0.38079992349E+01 0.44360646170E+01 0.55996837375E+01
 0.76865455893E+01 0.11510066196E+02 0.17405444932E+02 0.25037543380E+02 0.33597941215E+02
 0.42070404378E+02 0.64151658268E+02 0.68594614383E+02 0.68595575814E+02 0.64152664951E+02
 0.56258065468E+02 0.46368420739E+02 0.35860766877E+02 0.25877699521E+02 0.17405436382E+02
 0.11182200960E+02 0.73805024983E+01 0.54224231055E+01 0.43587700715E+01 0.38685782563E+01
 0.38697456564E+01 0.43600141825E+01 0.54213641603E+01 0.73792143586E+01 0.11183102789E+02
 0.17406680642E+02 0.25876967830E+02 0.35859725236E+02 0.46369140151E+02 0.56258859630E+02
 0.78887405757E+02 0.81743737167E+02 0.78887210367E+02 0.71076634380E+02 0.60114581871E+02
 0.47899538048E+02 0.35860456248E+02 0.25038324541E+02 0.16315242603E+02 0.10279945209E+02
 0.68491674776E+01 0.51623340858E+01 0.42782518279E+01 0.39990513256E+01 0.42783264489E+01
 0.51623612062E+01 0.68491478108E+01 0.10279969998E+02 0.16315237610E+02 0.25038136954E+02
 0.35860194791E+02 0.47899509242E+02 0.60114865952E+02 0.71076986453E+02 0.91317292005E+02
 0.91316680350E+02 0.84815830737E+02 0.73595551858E+02 0.60114822691E+02 0.46368320917E+02
 0.33597275996E+02 0.22676759474E+02 0.14362661285E+02 0.90165109526E+01 0.62184151477E+01
 0.48615670669E+01 0.42302685572E+01 0.42293975652E+01 0.48605904195E+01 0.62191352672E+01
 0.90175435248E+01 0.14362155383E+02 0.22675789230E+02 0.33597541527E+02 0.46368981121E+02
 0.60114520612E+02 0.73595185338E+02 0.84816515077E+02 0.98577994742E+02 0.94856931817E+02
 0.84815790437E+02 0.71076422508E+02 0.56258776210E+02 0.42070399511E+02 0.29474365302E+02
 0.19228956302E+02 0.11946852151E+02 0.76680358393E+01 0.55960876006E+01 0.45741825528E+01
 0.42478366907E+01 0.45741825528E+01 0.55960876006E+01 0.76680358393E+01 0.11946852151E+02
 0.19228956302E+02 0.29474365302E+02 0.42070399511E+02 0.56258776210E+02 0.71076422508E+02
 0.84815790437E+02 0.94856931817E+02 0.87967832882E+02 0.78887563088E+02 0.66345839984E+02
 0.52653231011E+02 0.39396398250E+02 0.27568722636E+02 0.17980156893E+02 0.11235496416E+02
 0.73252156304E+01 0.54257502886E+01 0.44614134643E+01 0.41544774344E+01 0.44614262438E+01
 0.54257573194E+01 0.73252028407E+01 0.11235472302E+02 0.17980145341E+02 0.27568732626E+02
 0.39396407178E+02 0.52653195890E+02 0.66345741843E+02 0.78887433415E+02 0.87967739812E+02
 0.91316507412E+02 0.78886738199E+02 0.68595163533E+02 0.56126243101E+02 0.43305924246E+02
 0.31346312493E+02 0.21146062833E+02 0.13447934973E+02 0.85583092833E+01 0.60165885495E+01
 0.47494091180E+01 0.41580538149E+01 0.41571679789E+01 0.47484269433E+01 0.60173390650E+01
 0.85593545244E+01 0.13447411667E+02 0.21145111225E+02 0.31346604657E+02 0.43306480712E+02
 0.56125712531E+02 0.68594662272E+02 0.78887485645E+02 0.84816514782E+02 0.84815831031E+02
 0.66345259641E+02 0.56125880930E+02 0.44689654264E+02 0.33403890798E+02 0.23299489921E+02
 0.15228181627E+02 0.97093749793E+01 0.66009730830E+01 0.50458623034E+01 0.42192435849E+01
 0.39602195236E+01 0.42192618632E+01 0.50458774008E+01 0.66009673215E+01 0.97093569425E+01
 0.15228179997E+02 0.23299522790E+02 0.33403937355E+02 0.44689673563E+02 0.56125841039E+02
 0.66345179514E+02 0.73595443867E+02 0.76240526367E+02 0.73595507212E+02 0.52653242506E+02
 0.43305835194E+02 0.33404342020E+02 0.24063098094E+02 0.16218017786E+02 0.10526324930E+02
 0.70874567158E+01 0.53030298796E+01 0.43070854374E+01 0.38507351343E+01 0.38517771289E+01
 0.43082145719E+01 0.53021024508E+01 0.70862428548E+01 0.10526999359E+02 0.16219123253E+02
 0.24062697324E+02 0.33403757465E+02 0.43306607813E+02 0.52653761030E+02 0.60114081403E+02
 0.64309462824E+02 0.64310468997E+02 0.60115293709E+02 0.39396398250E+02 0.31346014493E+02
 0.23300070265E+02 0.16219129180E+02 0.10822498115E+02 0.73642580624E+01 0.54745061082E+01
 0.43893789315E+01 0.38039155112E+01 0.36234299977E+01 0.38039189647E+01 0.43893842503E+01
 0.54745099139E+01 0.73642580558E+01 0.10822496048E+02 0.16219131388E+02 0.23300088682E+02
 0.31346053448E+02 0.39396454950E+02 0.46369377876E+02 0.51158771570E+02 0.52872151623E+02
 0.51158733876E+02 0.46369319418E+02 0.27568706325E+02 0.21145254254E+02 0.15227735219E+02
 0.10527222560E+02 0.73653646418E+01 0.55347507377E+01 0.44353481983E+01 0.37893648590E+01
 0.35021024167E+01 0.35010880270E+01 0.37883116689E+01 0.44363437560E+01 0.55359422642E+01
 0.73646000423E+01 0.10526089556E+02 0.15228205974E+02 0.21145891952E+02 0.27567920997E+02
 0.33597178539E+02 0.38307622982E+02 0.40900225874E+02 0.40899140103E+02 0.38306283699E+02
 0.33597666061E+02 0.17980705801E+02 0.13447572802E+02 0.97082457273E+01 0.70870054935E+01
 0.54750550164E+01 0.44357946061E+01 0.37854843095E+01 0.34499518623E+01 0.33488986910E+01
 0.34499418221E+01 0.37854767009E+01 0.44357995991E+01 0.54750682274E+01 0.70870064589E+01
 0.97082212754E+01 0.13447524262E+02 0.17980655904E+02 0.22676081631E+02 0.26779524505E+02
 0.29584265584E+02 0.30581458864E+02 0.29584261113E+02 0.26779530102E+02 0.22676111104E+02
 0.11236257438E+02 0.85589697589E+01 0.66006747786E+01 0.53022803528E+01 0.43890170644E+01
 0.37892167557E+01 0.34496535579E+01 0.33020074885E+01 0.33026592902E+01 0.34502836130E+01
 0.37884678349E+01 0.43881984340E+01 0.53028675073E+01 0.66015468437E+01 0.85587123084E+01
 0.11235792157E+02 0.14362600466E+02 0.17440688668E+02 0.19903896540E+02 0.21272950205E+02
 0.21273706086E+02 0.19904874860E+02 0.17440475217E+02 0.14362178953E+02 0.73252156304E+01
 0.60172189232E+01 0.50464426471E+01 0.43072684573E+01 0.38039155112E+01 0.35019242114E+01
 0.33483497828E+01 0.33020927833E+01 0.33483500373E+01 0.35019246047E+01 0.38039207533E+01
 0.43072826786E+01 0.50464719046E+01 0.60172565044E+01 0.73252449235E+01 0.90169612086E+01
 0.10906403465E+02 0.12652684671E+02 0.13886592322E+02 0.14331764313E+02 0.13886621106E+02
 0.12652722777E+02 0.10906424864E+02 0.90169534483E+01 0.54252081828E+01 0.47491263343E+01
 0.42193229724E+01 0.38511069691E+01 0.36240107817E+01 0.35016138223E+01 0.34500212096E+01
 0.34499059211E+01 0.35015770147E+01 0.36243333343E+01 0.38513862312E+01 0.42191129616E+01
 0.47487117431E+01 0.54250959581E+01 0.62188663947E+01 0.71456694126E+01 0.81105125950E+01
 0.89239547638E+01 0.93907882024E+01 0.93905965484E+01 0.89236357248E+01 0.81103637167E+01
 0.71455726956E+01 0.62187340058E+01 0.44614317093E+01 0.41576916437E+01 0.39596209349E+01
 0.38513259065E+01 0.38039372097E+01 0.37887580767E+01 0.37860073641E+01 0.37887661393E+01
 0.38039389983E+01 0.38513068437E+01 0.39595851997E+01 0.41576619129E+01 0.44614264762E+01
 0.48609360912E+01 0.53155601315E+01 0.57688168633E+01 0.61773383780E+01 0.64705376803E+01
 0.65778384359E+01 0.64705410781E+01 0.61773325974E+01 0.57687927580E+01 0.53155240339E+01
 0.48609122935E+01 0.41550083327E+01 0.41575983301E+01 0.42191936833E+01 0.43076951696E+01
 0.43887922587E+01 0.44359655281E+01 0.44357314192E+01 0.43884285585E+01 0.43076190610E+01
 0.42192605291E+01 0.41575937329E+01 0.41551390936E+01 0.42299800751E+01 0.43772984619E+01
 0.45697055663E+01 0.47658635824E+01 0.49233322514E+01 0.50100144106E+01 0.50098517770E+01
 0.49232270096E+01 0.47662129802E+01 0.45701110252E+01 0.43772318198E+01 0.42296512591E+01
 0.44614262438E+01 0.47488908917E+01 0.50464577446E+01 0.53024518959E+01 0.54745099139E+01
 0.55355976336E+01 0.54745193193E+01 0.53024674256E+01 0.50464719046E+01 0.47488929079E+01
 0.44614082312E+01 0.42298101178E+01 0.40799381687E+01 0.40119243531E+01 0.40051326446E+01
 0.40295119824E+01 0.40568698941E+01 0.40681855731E+01 0.40568606332E+01 0.40295053857E+01
 0.40051415864E+01 0.40119542857E+01 0.40799784779E+01 0.42298449060E+01 0.54252757109E+01
 0.60169957840E+01 0.66009862117E+01 0.70866751870E+01 0.73648993371E+01 0.73650653403E+01
 0.70870253491E+01 0.66012296491E+01 0.60169694117E+01 0.54250354607E+01 0.48609549814E+01
 0.43772113917E+01 0.40118036856E+01 0.37680731738E+01 0.36246505813E+01 0.35512325050E+01
 0.35217745399E+01 0.35218227928E+01 0.35512688115E+01 0.36245248672E+01 0.37678394510E+01
 0.40116745067E+01 0.43773188900E+01 0.48612263028E+01 0.73253215010E+01 0.85589923532E+01
 0.97086579384E+01 0.10526548136E+02 0.10822614708E+02 0.10526535964E+02 0.97086515233E+01
 0.85590106129E+01 0.73253635839E+01 0.62187870071E+01 0.53154597162E+01 0.45697737463E+01
 0.40052513049E+01 0.36246316911E+01 0.33966625017E+01 0.32808557506E+01 0.32460746238E+01
 0.32808488123E+01 0.33966576643E+01 0.36246349218E+01 0.40052554246E+01 0.45697645782E+01
 0.53154236185E+01 0.62187370216E+01 0.11236151533E+02 0.13447990351E+02 0.15227963484E+02
 0.16218455518E+02 0.16218687729E+02 0.15227976079E+02 0.13447307749E+02 0.11235873949E+02
 0.90174459238E+01 0.71459653127E+01 0.57686003507E+01 0.47657152497E+01 0.40298302723E+01
 0.35514679078E+01 0.32806392380E+01 0.31623091316E+01 0.31627396658E+01 0.32810574431E+01
 0.35510413811E+01 0.40295193904E+01 0.47663540942E+01 0.57690915701E+01 0.71452767954E+01
 0.90166163139E+01 0.17980145341E+02 0.21145968912E+02 0.23300103134E+02 0.24062653031E+02
 0.23300088682E+02 0.21145941060E+02 0.17980106995E+02 0.14361806646E+02 0.10906403465E+02
 0.81110874987E+01 0.61773201330E+01 0.49227685553E+01 0.40568698941E+01 0.35222889463E+01
 0.32459559635E+01 0.31620276371E+01 0.32459645045E+01 0.35222961712E+01 0.40568673687E+01
 0.49227549221E+01 0.61773078813E+01 0.81110896672E+01 0.10906424864E+02 0.14361843895E+02
 0.27567813714E+02 0.31346698680E+02 0.33404393549E+02 0.33403752494E+02 0.31346257426E+02
 0.27568823599E+02 0.22676537826E+02 0.17439934169E+02 0.12651960275E+02 0.89243315703E+01
 0.64709938744E+01 0.50094900365E+01 0.40676276017E+01 0.35222600966E+01 0.32813050064E+01
 0.32803847364E+01 0.35213444609E+01 0.40685557130E+01 0.50103739127E+01 0.64699377216E+01
 0.89232531017E+01 0.12652940240E+02 0.17441229715E+02 0.22675981406E+02 0.39395681778E+02
 0.43306118541E+02 0.44689818619E+02 0.43306156591E+02 0.39395729550E+02 0.33597624946E+02
 0.26780798813E+02 0.19904194845E+02 0.13885866922E+02 0.93907088149E+01 0.65785820810E+01
 0.50099199569E+01 0.40561352331E+01 0.35512499213E+01 0.33975017247E+01 0.35512578938E+01
 0.40561419687E+01 0.50099177186E+01 0.65785770556E+01 0.93907133742E+01 0.13885888828E+02
 0.19904220422E+02 0.26780804410E+02 0.33597597870E+02 0.52653143898E+02 0.56125559992E+02
 0.56126355750E+02 0.52653824518E+02 0.46368202994E+02 0.38306661863E+02 0.29584780294E+02
 0.21273763220E+02 0.14331517805E+02 0.93901612255E+01 0.64710557886E+01 0.49238099000E+01
 0.40290924525E+01 0.36240290470E+01 0.36251496322E+01 0.40302506134E+01 0.49227357279E+01
 0.64698792053E+01 0.93912280847E+01 0.14332820472E+02 0.21272878937E+02 0.29583468622E+02