   1   1   0   0
  0.1331906E+02  0.2660701E-09  0.2660701E-09  0.2660701E-09  0.5000000E-15
  1.000000000000000E-004
  CAR 
 unknown system                          
     36.97690531      0.75793799  301     12.48941227      1.00000000
      0.758  0.0000E+00  0.0000E+00
      0.879  0.0000E+00  0.0000E+00
      0.999  0.0000E+00  0.0000E+00
      1.120 -0.3745E-31 -0.4521E-32
      1.241 -0.4738E-27 -0.5721E-28
      1.362 -0.2874E-23 -0.3471E-24
      1.482 -0.8348E-20 -0.1008E-20
      1.603 -0.1123E-16 -0.1357E-17
      1.724 -0.7397E-14 -0.8944E-15
      1.845 -0.2305E-11 -0.2792E-12
      1.965 -0.3382E-09 -0.4111E-10
      2.086 -0.2307E-07 -0.2826E-08
      2.207 -0.7140E-06 -0.8903E-07
      2.327 -0.9479E-05 -0.1233E-05
      2.448 -0.4467E-04 -0.6626E-05
      2.569  0.1385E-04 -0.4954E-05
      2.690  0.5150E-03  0.5722E-04
      2.810  0.9362E-03  0.1702E-03
      2.931  0.5578E-03  0.2376E-03
      3.052  0.1210E-02  0.3837E-03
      3.173  0.2854E-02  0.7282E-03
      3.293  0.2257E-02  0.1001E-02
      3.414  0.1675E-02  0.1203E-02
      3.535  0.2744E-02  0.1534E-02
      3.655  0.2324E-02  0.1815E-02
      3.776  0.2433E-02  0.2109E-02
      3.897  0.3317E-02  0.2509E-02
      4.018  0.4696E-02  0.3076E-02
      4.138  0.1205E-01  0.4530E-02
      4.259  0.2389E-01  0.7415E-02
      4.380  0.3489E-01  0.1163E-01
      4.501  0.4500E-01  0.1706E-01
      4.621  0.5825E-01  0.2409E-01
      4.742  0.7828E-01  0.3354E-01
      4.863  0.8841E-01  0.4422E-01
      4.983  0.8113E-01  0.5401E-01
      5.104  0.7376E-01  0.6292E-01
      5.225  0.6612E-01  0.7090E-01
      5.346  0.5649E-01  0.7772E-01
      5.466  0.4578E-01  0.8325E-01
      5.587  0.4571E-01  0.8877E-01
      5.708  0.5770E-01  0.9573E-01
      5.829  0.5936E-01  0.1029E+00
      5.949  0.5476E-01  0.1095E+00
      6.070  0.5204E-01  0.1158E+00
      6.191  0.5108E-01  0.1220E+00
      6.312  0.5725E-01  0.1289E+00
      6.432  0.6091E-01  0.1362E+00
      6.553  0.6749E-01  0.1444E+00
      6.674  0.7967E-01  0.1540E+00
      6.794  0.9071E-01  0.1649E+00
      6.915  0.9517E-01  0.1764E+00
      7.036  0.8596E-01  0.1868E+00
      7.157  0.6379E-01  0.1945E+00
      7.277  0.5341E-01  0.2010E+00
      7.398  0.6237E-01  0.2085E+00
      7.519  0.6397E-01  0.2162E+00
      7.640  0.5195E-01  0.2225E+00
      7.760  0.5076E-01  0.2286E+00
      7.881  0.6363E-01  0.2363E+00
      8.002  0.7622E-01  0.2455E+00
      8.122  0.7595E-01  0.2547E+00
      8.243  0.5569E-01  0.2614E+00
      8.364  0.5307E-01  0.2678E+00
      8.485  0.6605E-01  0.2758E+00
      8.605  0.5256E-01  0.2821E+00
      8.726  0.4185E-01  0.2872E+00
      8.847  0.6119E-01  0.2946E+00
      8.968  0.7042E-01  0.3031E+00
      9.088  0.6680E-01  0.3111E+00
      9.209  0.7961E-01  0.3207E+00
      9.330  0.8807E-01  0.3314E+00
      9.450  0.6378E-01  0.3391E+00
      9.571  0.3873E-01  0.3437E+00
      9.692  0.2469E-01  0.3467E+00
      9.813  0.1499E-01  0.3485E+00
      9.933  0.8901E-02  0.3496E+00
     10.054  0.3602E-02  0.3500E+00
     10.175  0.2445E-02  0.3503E+00
     10.296  0.3685E-02  0.3508E+00
     10.416  0.5909E-02  0.3515E+00
     10.537  0.5318E-02  0.3521E+00
     10.658  0.3621E-02  0.3526E+00
     10.779  0.5073E-02  0.3532E+00
     10.899  0.1072E-01  0.3545E+00
     11.020  0.1377E-01  0.3561E+00
     11.141  0.7939E-02  0.3571E+00
     11.261  0.5566E-02  0.3578E+00
     11.382  0.8005E-02  0.3587E+00
     11.503  0.4849E-02  0.3593E+00
     11.624  0.6087E-03  0.3594E+00
     11.744  0.1745E-02  0.3596E+00
     11.865  0.6378E-02  0.3604E+00
     11.986  0.1125E-01  0.3617E+00
     12.107  0.1485E-01  0.3635E+00
     12.227  0.1504E-01  0.3654E+00
     12.348  0.7998E-02  0.3663E+00
     12.469  0.2398E-02  0.3666E+00
     12.589  0.4415E-02  0.3671E+00
     12.710  0.5849E-02  0.3678E+00
     12.831  0.6733E-02  0.3687E+00
     12.952  0.8278E-02  0.3697E+00
     13.072  0.4882E-02  0.3702E+00
     13.193  0.3994E-02  0.3707E+00
     13.314  0.8235E-02  0.3717E+00
     13.435  0.8421E-02  0.3727E+00
     13.555  0.6076E-02  0.3735E+00
     13.676  0.6341E-02  0.3742E+00
     13.797  0.1152E-01  0.3756E+00
     13.917  0.1867E-01  0.3779E+00
     14.038  0.1657E-01  0.3799E+00
     14.159  0.5793E-02  0.3806E+00
     14.280 -0.5568E-03  0.3805E+00
     14.400 -0.5639E-03  0.3804E+00
     14.521  0.2813E-02  0.3808E+00
     14.642  0.5845E-02  0.3815E+00
     14.763  0.3575E-02  0.3819E+00
     14.883  0.3881E-02  0.3824E+00
     15.004  0.1213E-01  0.3839E+00
     15.125  0.1630E-01  0.3858E+00
     15.246  0.1127E-01  0.3872E+00
     15.366  0.6573E-02  0.3880E+00
     15.487  0.3909E-02  0.3885E+00
     15.608  0.2792E-02  0.3888E+00
     15.728  0.2361E-02  0.3891E+00
     15.849  0.4036E-02  0.3896E+00
     15.970  0.8585E-02  0.3906E+00
     16.091  0.1098E-01  0.3919E+00
     16.211  0.7139E-02  0.3928E+00
     16.332  0.2356E-02  0.3931E+00
     16.453  0.3957E-02  0.3935E+00
     16.574  0.5772E-02  0.3942E+00
     16.694  0.2654E-02  0.3946E+00
     16.815  0.1523E-02  0.3947E+00
     16.936  0.2532E-02  0.3951E+00
     17.056  0.2698E-02  0.3954E+00
     17.177  0.5902E-02  0.3961E+00
     17.298  0.9575E-02  0.3972E+00
     17.419  0.7496E-02  0.3982E+00
     17.539  0.2031E-02  0.3984E+00
     17.660  0.2241E-02  0.3987E+00
     17.781  0.9245E-02  0.3998E+00
     17.902  0.1222E-01  0.4013E+00
     18.022  0.1277E-01  0.4028E+00
     18.143  0.1564E-01  0.4047E+00
     18.264  0.1286E-01  0.4062E+00
     18.385  0.6417E-02  0.4070E+00
     18.505  0.4693E-02  0.4076E+00
     18.626  0.7998E-02  0.4085E+00
     18.747  0.1149E-01  0.4099E+00
     18.867  0.1514E-01  0.4118E+00
     18.988  0.1581E-01  0.4137E+00
     19.109  0.1199E-01  0.4151E+00
     19.230  0.5677E-02  0.4158E+00
     19.350  0.1073E-02  0.4159E+00
     19.471  0.3143E-02  0.4163E+00
     19.592  0.7622E-02  0.4172E+00
     19.713  0.1001E-01  0.4184E+00
     19.833  0.1186E-01  0.4199E+00
     19.954  0.1067E-01  0.4212E+00
     20.075  0.6142E-02  0.4219E+00
     20.195  0.6843E-02  0.4227E+00
     20.316  0.1185E-01  0.4242E+00
     20.437  0.1130E-01  0.4255E+00
     20.558  0.9848E-02  0.4267E+00
     20.678  0.6567E-02  0.4275E+00
     20.799  0.7218E-03  0.4276E+00
     20.920  0.3292E-03  0.4276E+00
     21.041  0.7186E-02  0.4285E+00
     21.161  0.1412E-01  0.4302E+00
     21.282  0.1263E-01  0.4317E+00
     21.403  0.6161E-02  0.4325E+00
     21.523  0.5608E-02  0.4332E+00
     21.644  0.1541E-01  0.4350E+00
     21.765  0.2422E-01  0.4379E+00
     21.886  0.2562E-01  0.4410E+00
     22.006  0.2103E-01  0.4436E+00
     22.127  0.1076E-01  0.4449E+00
     22.248  0.8181E-02  0.4459E+00
     22.369  0.1336E-01  0.4475E+00
     22.489  0.1428E-01  0.4492E+00
     22.610  0.1313E-01  0.4508E+00
     22.731  0.1236E-01  0.4523E+00
     22.852  0.1082E-01  0.4536E+00
     22.972  0.1399E-01  0.4553E+00
     23.093  0.1960E-01  0.4576E+00
     23.214  0.1634E-01  0.4596E+00
     23.334  0.7373E-02  0.4605E+00
     23.455  0.1163E-02  0.4606E+00
     23.576  0.3104E-02  0.4610E+00
     23.697  0.1473E-01  0.4628E+00
     23.817  0.2798E-01  0.4662E+00
     23.938  0.3107E-01  0.4699E+00
     24.059  0.2099E-01  0.4725E+00
     24.180  0.9654E-02  0.4736E+00
     24.300  0.1136E-01  0.4750E+00
     24.421  0.1793E-01  0.4772E+00
     24.542  0.1740E-01  0.4793E+00
     24.662  0.1381E-01  0.4809E+00
     24.783  0.1651E-01  0.4829E+00
     24.904  0.2071E-01  0.4854E+00
     25.025  0.1940E-01  0.4878E+00
     25.145  0.1803E-01  0.4899E+00
     25.266  0.1645E-01  0.4919E+00
     25.387  0.1431E-01  0.4936E+00
     25.508  0.1427E-01  0.4954E+00
     25.628  0.1452E-01  0.4971E+00
     25.749  0.1143E-01  0.4985E+00
     25.870  0.9218E-02  0.4996E+00
     25.990  0.7877E-02  0.5006E+00
     26.111  0.8578E-02  0.5016E+00
     26.232  0.1647E-01  0.5036E+00
     26.353  0.2611E-01  0.5067E+00
     26.473  0.2350E-01  0.5096E+00
     26.594  0.1728E-01  0.5117E+00
     26.715  0.2092E-01  0.5142E+00
     26.836  0.2242E-01  0.5169E+00
     26.956  0.2130E-01  0.5195E+00
     27.077  0.1862E-01  0.5217E+00
     27.198  0.1259E-01  0.5232E+00
     27.319  0.7355E-02  0.5241E+00
     27.439  0.7016E-02  0.5250E+00
     27.560  0.1824E-01  0.5272E+00
     27.681  0.2963E-01  0.5308E+00
     27.801  0.2626E-01  0.5339E+00
     27.922  0.1485E-01  0.5357E+00
     28.043  0.1188E-01  0.5371E+00
     28.164  0.1884E-01  0.5394E+00
     28.284  0.1889E-01  0.5417E+00
     28.405  0.1324E-01  0.5433E+00
     28.526  0.1763E-01  0.5454E+00
     28.647  0.2223E-01  0.5481E+00
     28.767  0.1827E-01  0.5503E+00
     28.888  0.1941E-01  0.5527E+00
     29.009  0.2437E-01  0.5556E+00
     29.129  0.1927E-01  0.5579E+00
     29.250  0.1371E-01  0.5596E+00
     29.371  0.1324E-01  0.5612E+00
     29.492  0.1508E-01  0.5630E+00
     29.612  0.2042E-01  0.5655E+00
     29.733  0.2272E-01  0.5682E+00
     29.854  0.1734E-01  0.5703E+00
     29.975  0.1230E-01  0.5718E+00
     30.095  0.1245E-01  0.5733E+00
     30.216  0.1179E-01  0.5747E+00
     30.337  0.9222E-02  0.5758E+00
     30.457  0.8995E-02  0.5769E+00
     30.578  0.8365E-02  0.5779E+00
     30.699  0.7120E-02  0.5788E+00
     30.820  0.9005E-02  0.5799E+00
     30.940  0.1106E-01  0.5812E+00
     31.061  0.7905E-02  0.5822E+00
     31.182  0.4087E-02  0.5827E+00
     31.303  0.2541E-02  0.5830E+00
     31.423  0.3870E-02  0.5834E+00
     31.544  0.8700E-02  0.5845E+00
     31.665  0.1244E-01  0.5860E+00
     31.786  0.1370E-01  0.5876E+00
     31.906  0.1209E-01  0.5891E+00
     32.027  0.7869E-02  0.5900E+00
     32.148  0.5490E-02  0.5907E+00
     32.268  0.5674E-02  0.5914E+00
     32.389  0.4808E-02  0.5920E+00
     32.510  0.2964E-02  0.5923E+00
     32.631  0.2105E-02  0.5926E+00
     32.751  0.3731E-02  0.5930E+00
     32.872  0.5726E-02  0.5937E+00
     32.993  0.7013E-02  0.5946E+00
     33.114  0.4912E-02  0.5952E+00
     33.234  0.2282E-02  0.5954E+00
     33.355  0.4432E-02  0.5960E+00
     33.476  0.1004E-01  0.5972E+00
     33.596  0.1168E-01  0.5986E+00
     33.717  0.5433E-02  0.5993E+00
     33.838  0.6305E-03  0.5993E+00
     33.959  0.5587E-03  0.5994E+00
     34.079  0.6184E-03  0.5995E+00
     34.200  0.9285E-04  0.5995E+00
     34.321 -0.5326E-04  0.5995E+00
     34.442 -0.2971E-04  0.5995E+00
     34.562 -0.6295E-04  0.5995E+00
     34.683  0.1783E-05  0.5995E+00
     34.804  0.6784E-03  0.5996E+00
     34.924  0.1675E-02  0.5998E+00
     35.045  0.1581E-02  0.5999E+00
     35.166  0.5490E-03  0.6000E+00
     35.287 -0.2974E-04  0.6000E+00
     35.407 -0.5417E-04  0.6000E+00
     35.528 -0.1020E-04  0.6000E+00
     35.649 -0.7374E-06  0.6000E+00
     35.770 -0.2341E-07  0.6000E+00
     35.890 -0.3405E-09  0.6000E+00
     36.011 -0.2313E-11  0.6000E+00
     36.132 -0.7409E-14  0.6000E+00
     36.253 -0.1102E-16  0.6000E+00
     36.373  0.0000E+00  0.6000E+00
     36.494  0.0000E+00  0.6000E+00
     36.615  0.0000E+00  0.6000E+00
     36.735  0.0000E+00  0.6000E+00
     36.856  0.0000E+00  0.6000E+00
     36.977  0.0000E+00  0.6000E+00
