    1    1   30    1
  0.1331906E+02  0.2660701E-09  0.2660701E-09  0.2660701E-09  0.5000000E-15
  1.000000000000000E-004
  CAR 
 unknown system                          
     11     60      9
 
  0.6250000E-01  0.6250000E-01  0.6250000E-01  0.3906250E-02
    1        2.757938
    2        6.444980
    3        6.542509
    4        6.542510
    5        8.063916
    6        8.063916
    7       28.834572
    8       32.740035
    9       33.923294
 
  0.1875000E+00  0.6250000E-01  0.6250000E-01  0.1171875E-01
    1        3.496143
    2        6.221957
    3        6.756715
    4        6.790128
    5        7.845393
    6        8.187780
    7       29.050144
    8       30.169764
    9       33.481653
 
  0.3125000E+00  0.6250000E-01  0.6250000E-01  0.1171875E-01
    1        4.437096
    2        6.600097
    3        6.832255
    4        6.890757
    5        8.096585
    6        8.799515
    7       24.783039
    8       29.456043
    9       33.465709
 
  0.4375000E+00  0.6250000E-01  0.6250000E-01  0.1171875E-01
    1        4.339720
    2        6.480912
    3        6.595133
    4        8.458923
    5        8.880866
    6       10.413442
    7       19.890992
    8       28.393568
    9       32.139334
 
 -0.4375000E+00  0.6250000E-01  0.6250000E-01  0.1171875E-01
    1        4.242742
    2        6.369665
    3        6.532097
    4        8.783171
    5        9.308474
    6       11.771831
    7       17.742151
    8       28.057994
    9       32.233039
 
 -0.3125000E+00  0.6250000E-01  0.6250000E-01  0.1171875E-01
    1        4.402932
    2        6.533858
    3        6.705771
    4        7.807583
    5        9.007527
    6        9.496065
    7       21.431320
    8       28.798153
    9       32.724067
 
 -0.1875000E+00  0.6250000E-01  0.6250000E-01  0.1171875E-01
    1        4.241191
    2        6.289126
    3        6.837281
    4        6.885976
    5        8.058624
    6        8.391071
    7       26.443701
    8       29.894478
    9       33.563199
 
 -0.6250000E-01  0.6250000E-01  0.6250000E-01  0.1171875E-01
    1        3.144118
    2        6.270269
    3        6.697688
    4        6.702398
    5        7.876100
    6        8.158071
    7       29.151163
    8       31.457987
    9       33.547829
 
  0.1875000E+00  0.1875000E+00  0.6250000E-01  0.1171875E-01
    1        3.841364
    2        5.932658
    3        6.984073
    4        7.013060
    5        7.650703
    6        8.334103
    7       29.495990
    8       30.407838
    9       32.413850
 
  0.3125000E+00  0.1875000E+00  0.6250000E-01  0.2343750E-01
    1        4.792886
    2        5.667635
    3        6.787602
    4        7.395686
    5        8.091211
    6        8.939975
    7       26.925966
    8       28.976376
    9       31.687267
 
  0.4375000E+00  0.1875000E+00  0.6250000E-01  0.2343750E-01
    1        4.832366
    2        6.203699
    3        6.680279
    4        7.263822
    5        8.997474
    6       10.976772
    7       21.816343
    8       28.236552
    9       29.769687
 
 -0.4375000E+00  0.1875000E+00  0.6250000E-01  0.2343750E-01
    1        4.724657
    2        6.003233
    3        7.011095
    4        7.524833
    5        9.242949
    6       13.764792
    7       17.814787
    8       27.563522
    9       29.240402
 
 -0.3125000E+00  0.1875000E+00  0.6250000E-01  0.2343750E-01
    1        4.872457
    2        6.143122
    3        6.968070
    4        7.283057
    5        8.778853
    6       12.117517
    7       20.289187
    8       27.145856
    9       30.000285
 
 -0.1875000E+00  0.1875000E+00  0.6250000E-01  0.2343750E-01
    1        5.079503
    2        5.932875
    3        6.593524
    4        7.349883
    5        7.880724
    6        9.779558
    7       25.264389
    8       27.527274
    9       31.924026
 
 -0.6250000E-01  0.1875000E+00  0.6250000E-01  0.2343750E-01
    1        4.124287
    2        5.992907
    3        6.890997
    4        7.007798
    5        7.745741
    6        8.464931
    7       28.174134
    8       29.610165
    9       32.954451
 
  0.3125000E+00  0.3125000E+00  0.6250000E-01  0.1171875E-01
    1        4.822135
    2        5.094600
    3        7.612331
    4        7.984079
    5        8.838266
    6        8.840117
    7       27.323514
    8       28.572905
    9       28.999924
 
  0.4375000E+00  0.3125000E+00  0.6250000E-01  0.2343750E-01
    1        4.758148
    2        4.975227
    3        7.483976
    4        8.418214
    5        9.070643
    6       11.353502
    7       24.243880
    8       26.313958
    9       26.627992
 
 -0.4375000E+00  0.3125000E+00  0.6250000E-01  0.2343750E-01
    1        4.813340
    2        5.425307
    3        7.072687
    4        8.035185
    5        9.323497
    6       15.063955
    7       19.517794
    8       24.356112
    9       26.751708
 
 -0.3125000E+00  0.3125000E+00  0.6250000E-01  0.2343750E-01
    1        5.255332
    2        5.902799
    3        6.485284
    4        7.768846
    5        8.820059
    6       15.301743
    7       19.843681
    8       22.827040
    9       28.505032
 
 -0.1875000E+00  0.3125000E+00  0.6250000E-01  0.2343750E-01
    1        5.456498
    2        6.005229
    3        6.341989
    4        7.550314
    5        8.292685
    6       12.180617
    7       22.439447
    8       24.854011
    9       30.149254
 
 -0.6250000E-01  0.3125000E+00  0.6250000E-01  0.2343750E-01
    1        4.658007
    2        6.541222
    3        6.782210
    4        6.996696
    5        8.488938
    6        9.611993
    7       23.246409
    8       28.918964
    9       31.790339
 
  0.4375000E+00  0.4375000E+00  0.6250000E-01  0.1171875E-01
    1        4.256708
    2        4.445713
    3        8.956825
    4        8.966937
    5        9.370845
    6       12.249844
    7       23.726518
    8       24.542868
    9       25.371113
 
 -0.4375000E+00  0.4375000E+00  0.6250000E-01  0.2343750E-01
    1        4.285709
    2        4.542402
    3        8.477648
    4        8.928303
    5        9.545272
    6       14.947716
    7       21.639456
    8       22.585707
    9       24.513466
 
 -0.3125000E+00  0.4375000E+00  0.6250000E-01  0.2343750E-01
    1        4.715886
    2        5.285674
    3        7.283041
    4        8.296481
    5        9.277674
    6       17.182390
    7       18.921068
    8       21.955167
    9       26.316678
 
 -0.1875000E+00  0.4375000E+00  0.6250000E-01  0.2343750E-01
    1        5.064423
    2        5.802462
    3        6.984072
    4        7.405952
    5        9.075913
    6       15.079946
    7       18.048254
    8       25.416563
    9       28.635153
 
 -0.6250000E-01  0.4375000E+00  0.6250000E-01  0.2343750E-01
    1        4.456964
    2        6.272632
    3        6.721253
    4        8.063157
    5        9.175071
    6       11.964457
    7       18.643240
    8       28.155194
    9       30.854792
 
 -0.4375000E+00 -0.4375000E+00  0.6250000E-01  0.1171875E-01
    1        4.065989
    2        4.301905
    3        9.165018
    4        9.321966
    5        9.565810
    6       13.853869
    7       21.666198
    8       23.820992
    9       24.619411
 
 -0.3125000E+00 -0.4375000E+00  0.6250000E-01  0.2343750E-01
    1        4.470380
    2        4.684920
    3        8.060969
    4        8.820678
    5        9.346674
    6       13.261515
    7       23.077021
    8       23.920226
    9       25.155643
 
 -0.1875000E+00 -0.4375000E+00  0.6250000E-01  0.2343750E-01
    1        4.886058
    2        5.747477
    3        6.815936
    4        7.645565
    5        9.264747
    6       12.862903
    7       20.532832
    8       26.966751
    9       27.668918
 
 -0.3125000E+00 -0.3125000E+00  0.6250000E-01  0.1171875E-01
    1        4.571221
    2        4.721779
    3        8.349848
    4        8.526875
    5        9.112052
    6       10.357350
    7       25.802778
    8       26.473737
    9       26.752201
 
 -0.1875000E+00 -0.3125000E+00  0.6250000E-01  0.2343750E-01
    1        4.994886
    2        5.338926
    3        6.933426
    4        7.888111
    5        8.665534
    6        9.828667
    7       25.589029
    8       27.735755
    9       29.341243
 
 -0.1875000E+00 -0.1875000E+00  0.6250000E-01  0.1171875E-01
    1        4.584331
    2        5.516048
    3        7.153565
    4        7.454512
    5        7.919903
    6        8.571347
    7       28.710548
    8       30.352748
    9       30.587993
 
  0.1875000E+00  0.1875000E+00  0.1875000E+00  0.3906250E-02
    1        3.774137
    2        6.315295
    3        6.781356
    4        6.781356
    5        8.053403
    6        8.053403
    7       27.891469
    8       29.981092
    9       34.976905
 
  0.3125000E+00  0.1875000E+00  0.1875000E+00  0.1171875E-01
    1        4.601641
    2        6.010442
    3        6.845313
    4        7.099433
    5        7.641099
    6        8.978326
    7       26.673251
    8       28.655154
    9       33.303483
 
  0.4375000E+00  0.1875000E+00  0.1875000E+00  0.1171875E-01
    1        5.299142
    2        6.079633
    3        6.613579
    4        7.274244
    5        7.902084
    6       10.839078
    7       23.779221
    8       26.130019
    9       31.568650
 
 -0.4375000E+00  0.1875000E+00  0.1875000E+00  0.1171875E-01
    1        4.943144
    2        6.015257
    3        7.115512
    4        7.276779
    5        8.840149
    6       13.490513
    7       19.006251
    8       26.148264
    9       30.470439
 
 -0.3125000E+00  0.1875000E+00  0.1875000E+00  0.1171875E-01
    1        4.766664
    2        5.959031
    3        7.162257
    4        7.209158
    5        9.355417
    6       13.336181
    7       18.832177
    8       27.208069
    9       29.744835
 
 -0.1875000E+00  0.1875000E+00  0.1875000E+00  0.1171875E-01
    1        4.854617
    2        5.802296
    3        6.779276
    4        7.441862
    5        9.114394
    6       10.106422
    7       23.599333
    8       28.906677
    9       29.526257
 
  0.3125000E+00  0.3125000E+00  0.1875000E+00  0.1171875E-01
    1        4.691110
    2        6.144628
    3        6.682769
    4        7.106032
    5        8.755845
    6        8.770977
    7       25.012728
    8       29.724882
    9       31.524107
 
  0.4375000E+00  0.3125000E+00  0.1875000E+00  0.2343750E-01
    1        5.254802
    2        5.810708
    3        6.339295
    4        7.778767
    5        8.405174
    6       10.949878
    7       23.922451
    8       26.286135
    9       29.631542
 
 -0.4375000E+00  0.3125000E+00  0.1875000E+00  0.2343750E-01
    1        5.559225
    2        5.674191
    3        6.205539
    4        7.903803
    5        8.784790
    6       13.899811
    7       21.238498
    8       23.813727
    9       27.600003
 
 -0.3125000E+00  0.3125000E+00  0.1875000E+00  0.2343750E-01
    1        5.225950
    2        5.595004
    3        6.620126
    4        7.790998
    5        9.212886
    6       16.110025
    7       18.258520
    8       24.957159
    9       25.864293
 
 -0.1875000E+00  0.3125000E+00  0.1875000E+00  0.2343750E-01
    1        5.106356
    2        5.417232
    3        6.644116
    4        8.228444
    5        8.879851
    6       12.591683
    7       22.678753
    8       25.098410
    9       26.962291
 
  0.4375000E+00  0.4375000E+00  0.1875000E+00  0.1171875E-01
    1        4.743093
    2        5.345456
    3        7.251515
    4        7.863284
    5        9.351249
    6       11.912885
    7       22.263798
    8       26.715639
    9       27.859720
 
 -0.4375000E+00  0.4375000E+00  0.1875000E+00  0.2343750E-01
    1        4.856864
    2        5.119435
    3        7.087545
    4        8.476695
    5        9.272264
    6       14.595224
    7       21.668377
    8       23.988347
    9       24.391622
 
 -0.3125000E+00  0.4375000E+00  0.1875000E+00  0.2343750E-01
    1        5.044488
    2        5.620050
    3        6.448524
    4        8.094440
    5        9.536011
    6       18.127158
    7       19.694435
    8       21.993318
    9       22.987217
 
 -0.1875000E+00  0.4375000E+00  0.1875000E+00  0.2343750E-01
    1        5.259981
    2        5.631310
    3        6.306467
    4        8.078902
    5        9.239478
    6       15.978099
    7       20.263883
    8       23.076147
    9       24.803185
 
 -0.4375000E+00 -0.4375000E+00  0.1875000E+00  0.1171875E-01
    1        4.410885
    2        4.837289
    3        8.071374
    4        8.647514
    5        9.385596
    6       15.836828
    7       20.550453
    8       21.823777
    9       26.052612
 
 -0.3125000E+00 -0.4375000E+00  0.1875000E+00  0.2343750E-01
    1        4.671277
    2        4.996114
    3        7.428827
    4        8.487942
    5        9.538135
    6       16.488222
    7       21.056212
    8       21.879348
    9       23.746284
 
 -0.3125000E+00 -0.3125000E+00  0.1875000E+00  0.1171875E-01
    1        4.550391
    2        5.002278
    3        7.754665
    4        8.306340
    5        9.433789
    6       13.986133
    7       21.176976
    8       24.032660
    9       26.671121
 
  0.3125000E+00  0.3125000E+00  0.3125000E+00  0.3906250E-02
    1        4.351955
    2        6.687860
    3        6.687860
    4        7.694208
    5        8.585351
    6        8.585351
    7       23.014456
    8       29.163782
    9       34.856520
 
  0.4375000E+00  0.3125000E+00  0.3125000E+00  0.1171875E-01
    1        4.720867
    2        6.403528
    3        6.878798
    4        7.330118
    5        8.409904
    6       10.683788
    7       21.676754
    8       28.008066
    9       31.193733
 
 -0.4375000E+00  0.3125000E+00  0.3125000E+00  0.1171875E-01
    1        5.382374
    2        6.020828
    3        6.542544
    4        7.498833
    5        8.456693
    6       13.595159
    7       21.092297
    8       23.659827
    9       30.890440
 
 -0.3125000E+00  0.3125000E+00  0.3125000E+00  0.1171875E-01
    1        4.906676
    2        5.687442
    3        6.932416
    4        7.995238
    5        8.991284
    6       16.874060
    7       18.507628
    8       22.238180
    9       28.551747
 
  0.4375000E+00  0.4375000E+00  0.3125000E+00  0.1171875E-01
    1        4.564408
    2        6.271797
    3        6.886811
    4        7.443502
    5        9.282839
    6       11.253359
    7       20.024461
    8       28.475568
    9       31.006416
 
 -0.4375000E+00  0.4375000E+00  0.3125000E+00  0.2343750E-01
    1        5.085567
    2        5.800081
    3        6.829420
    4        7.474046
    5        9.089344
    6       13.970194
    7       19.105518
    8       26.396541
    9       27.722195
 
 -0.3125000E+00  0.4375000E+00  0.3125000E+00  0.2343750E-01
    1        5.144098
    2        5.694179
    3        6.469006
    4        7.997142
    5        9.238318
    6       17.339156
    7       18.811383
    8       22.339650
    9       25.594660
 
 -0.4375000E+00 -0.4375000E+00  0.3125000E+00  0.1171875E-01
    1        4.896251
    2        5.741075
    3        7.000138
    4        7.621363
    5        9.223372
    6       15.570153
    7       18.017983
    8       24.737543
    9       28.938033
 
  0.4375000E+00  0.4375000E+00  0.4375000E+00  0.3906250E-02
    1        4.180569
    2        6.475125
    3        6.475125
    4        9.204526
    5        9.204526
    6       10.548759
    7       18.541011
    8       28.124538
    9       33.078819
 
 -0.4375000E+00  0.4375000E+00  0.4375000E+00  0.1171875E-01
    1        4.510798
    2        6.188818
    3        6.757358
    4        8.055900
    5        9.171281
    6       12.947381
    7       17.785659
    8       27.838143
    9       30.687179
