 vasp.5.3.5 31Mar14 (build Jan 09 2015 16:57:47) complex                        
  
 executed on             LinuxIFC date 2015.03.24  14:26:00
 serial version


--------------------------------------------------------------------------------------------------------


 INCAR:
 POTCAR:    PAW_PBE Ag 02Apr2005                  
 POTCAR:    PAW_PBE Ag 02Apr2005                  
   VRHFIN =Ag : s1 d10                                                          
   LEXCH  = PE                                                                  
   EATOM  =  1037.2675 eV,   76.2370 Ry                                         
                                                                                
   TITEL  = PAW_PBE Ag 02Apr2005                                                
   LULTRA =        F    use ultrasoft PP ?                                      
   IUNSCR =        1    unscreen: 0-lin 1-nonlin 2-no                           
   RPACOR =    2.000    partial core radius                                     
   POMASS =  107.868; ZVAL   =   11.000    mass and valenz                      
   RCORE  =    2.500    outmost cutoff radius                                   
   RWIGS  =    2.840; RWIGS  =    1.503    wigner-seitz radius (au A)           
   ENMAX  =  249.844; ENMIN  =  187.383 eV                                      
   ICORE  =        3    local potential                                         
   LCOR   =        T    correct aug charges                                     
   LPAW   =        T    paw PP                                                  
   EAUG   =  412.496                                                            
   DEXC   =    0.000                                                            
   RMAX   =    2.560    core radius for proj-oper                               
   RAUG   =    1.300    factor for augmentation sphere                          
   RDEP   =    2.576    radius for radial grids                                 
   RDEPT  =    2.072    core radius for aug-charge                              
                                                                                
   Atomic configuration                                                         
   12 entries                                                                   
     n  l   j            E        occ.                                          
     1  0  0.50    -25324.9161   2.0000                                         
     2  0  0.50     -3728.5341   2.0000                                         
     2  1  1.50     -3344.0404   6.0000                                         
     3  0  0.50      -683.5581   2.0000                                         
     3  1  1.50      -557.3225   6.0000                                         
     3  2  2.50      -358.3853  10.0000                                         
     4  0  0.50       -95.0341   2.0000                                         
     4  1  1.50       -58.5511   6.0000                                         
     4  2  2.50        -7.4440  10.0000                                         
     5  0  0.50        -4.4045   1.0000                                         
     5  1  0.50        -1.3606   0.0000                                         
     4  3  2.50        -1.3606   0.0000                                         
   Description                                                                  
     l       E           TYP  RCUT    TYP  RCUT                                 
     2     -7.4439781     23  2.400                                             
     2     -8.8045607     23  2.400                                             
     0     -4.4044681     23  2.400                                             
     0      1.9520038     23  2.400                                             
     1     -1.3605826     23  2.500                                             
     1     27.2116520     23  2.500                                             
     3     -4.0817478     23  2.400                                             
  local pseudopotential read in
  partial core-charges read in
  partial kinetic energy density read in
  atomic valenz-charges read in
  non local Contribution for L=           2  read in
    real space projection operators read in
  non local Contribution for L=           2  read in
    real space projection operators read in
  non local Contribution for L=           0  read in
    real space projection operators read in
  non local Contribution for L=           0  read in
    real space projection operators read in
  non local Contribution for L=           1  read in
    real space projection operators read in
  non local Contribution for L=           1  read in
    real space projection operators read in
    PAW grid and wavefunctions read in
 
   number of l-projection  operators is LMAX  =           6
   number of lm-projection operators is LMMAX =          18
 
  PAW_PBE Ag 02Apr2005                  :
 energy of atom  1       EATOM=-1037.2675
 kinetic energy error for atom=    0.0272 (will be added to EATOM!!)
 
 
 POSCAR: Ag                                      
  positions in cartesian coordinates
  No initial velocities read in
 exchange correlation table for  LEXCH =        8
   RHO(1)=    0.500       N(1)  =     2000
   RHO(2)=  100.500       N(2)  =     4000

 VTST: version 3.1, (03/28/14)

 CHAIN: initializing optimizer
 
 OPT: Using VASP Conjugate-Gradient optimizer
 CHAIN: Read ICHAIN            0
 
 POSCAR: Ag                                      
  positions in cartesian coordinates
  No initial velocities read in
 


--------------------------------------------------------------------------------------------------------


 ion  position               nearest neighbor table
   1  0.000  0.000  0.000-
 
  LATTYP: Found a face centered cubic cell.
 ALAT       =     3.7628000000
  
  Lattice vectors:
  
 A1 = (   2.6607013962,   0.0000000000,   0.0000000000)
 A2 = (   1.3303506981,   2.3042350010,   0.0000000000)
 A3 = (   1.3303506981,   0.7680783337,   2.1724535929)


Analysis of symmetry for initial positions (statically):
=====================================================================
 Subroutine PRICEL returns:
 Original cell was already a primitive cell.
 

 Routine SETGRP: Setting up the symmetry group for a 
 face centered cubic supercell.


 Subroutine GETGRP returns: Found 48 space group operations
 (whereof 48 operations were pure point group operations)
 out of a pool of 48 trial point group operations.


The static configuration has the point symmetry O_h .


Analysis of symmetry for dynamics (positions and initial velocities):
=====================================================================
 Subroutine PRICEL returns:
 Original cell was already a primitive cell.
 

 Routine SETGRP: Setting up the symmetry group for a 
 face centered cubic supercell.


 Subroutine GETGRP returns: Found 48 space group operations
 (whereof 48 operations were pure point group operations)
 out of a pool of 48 trial point group operations.


The dynamic configuration has the point symmetry O_h .
 
 
 KPOINTS: KPOINTS created by Atomic Simulation Env

Automatic generation of k-mesh.
Space group operators:
 irot       det(A)        alpha          n_x          n_y          n_z        tau_x        tau_y        tau_z
    1     1.000000     0.000000     1.000000     0.000000     0.000000     0.000000     0.000000     0.000000
    2    -1.000000     0.000000     1.000000     0.000000     0.000000     0.000000     0.000000     0.000000
    3     1.000000   120.000000    -0.816497    -0.471405    -0.333333     0.000000     0.000000     0.000000
    4    -1.000000   120.000000    -0.816497    -0.471405    -0.333333     0.000000     0.000000     0.000000
    5     1.000000   120.000000     0.816497     0.471405     0.333333     0.000000     0.000000     0.000000
    6    -1.000000   120.000000     0.816497     0.471405     0.333333     0.000000     0.000000     0.000000
    7     1.000000    90.000000    -0.707107    -0.408248     0.577350     0.000000     0.000000     0.000000
    8    -1.000000    90.000000    -0.707107    -0.408248     0.577350     0.000000     0.000000     0.000000
    9     1.000000   180.000000     1.000000     0.000000     0.000000     0.000000     0.000000     0.000000
   10    -1.000000   180.000000     1.000000     0.000000     0.000000     0.000000     0.000000     0.000000
   11     1.000000    90.000000     0.707107    -0.408248     0.577350     0.000000     0.000000     0.000000
   12    -1.000000    90.000000     0.707107    -0.408248     0.577350     0.000000     0.000000     0.000000
   13     1.000000   179.999999     0.707107     0.408248    -0.577350     0.000000     0.000000     0.000000
   14    -1.000000   179.999999     0.707107     0.408248    -0.577350     0.000000     0.000000     0.000000
   15     1.000000   120.000000     0.816497    -0.471405    -0.333333     0.000000     0.000000     0.000000
   16    -1.000000   120.000000     0.816497    -0.471405    -0.333333     0.000000     0.000000     0.000000
   17     1.000000   120.000000     0.000000    -0.942809     0.333333     0.000000     0.000000     0.000000
   18    -1.000000   120.000000     0.000000    -0.942809     0.333333     0.000000     0.000000     0.000000
   19     1.000000    90.000000     0.707107     0.408248    -0.577350     0.000000     0.000000     0.000000
   20    -1.000000    90.000000     0.707107     0.408248    -0.577350     0.000000     0.000000     0.000000
   21     1.000000    90.000000     0.000000    -0.816497    -0.577350     0.000000     0.000000     0.000000
   22    -1.000000    90.000000     0.000000    -0.816497    -0.577350     0.000000     0.000000     0.000000
   23     1.000000   180.000000     0.500000     0.866025     0.000000     0.000000     0.000000     0.000000
   24    -1.000000   180.000000     0.500000     0.866025     0.000000     0.000000     0.000000     0.000000
   25     1.000000   120.000000     0.000000     0.942809    -0.333333     0.000000     0.000000     0.000000
   26    -1.000000   120.000000     0.000000     0.942809    -0.333333     0.000000     0.000000     0.000000
   27     1.000000   120.000000     0.000000     0.000000    -1.000000     0.000000     0.000000     0.000000
   28    -1.000000   120.000000     0.000000     0.000000    -1.000000     0.000000     0.000000     0.000000
   29     1.000000   180.000000     0.000000    -0.816497    -0.577350     0.000000     0.000000     0.000000
   30    -1.000000   180.000000     0.000000    -0.816497    -0.577350     0.000000     0.000000     0.000000
   31     1.000000    90.000000    -0.707107     0.408248    -0.577350     0.000000     0.000000     0.000000
   32    -1.000000    90.000000    -0.707107     0.408248    -0.577350     0.000000     0.000000     0.000000
   33     1.000000   179.999999     0.500000     0.288675     0.816497     0.000000     0.000000     0.000000
   34    -1.000000   179.999999     0.500000     0.288675     0.816497     0.000000     0.000000     0.000000
   35     1.000000    90.000000     0.000000     0.816497     0.577350     0.000000     0.000000     0.000000
   36    -1.000000    90.000000     0.000000     0.816497     0.577350     0.000000     0.000000     0.000000
   37     1.000000   120.000000    -0.816497     0.471405     0.333333     0.000000     0.000000     0.000000
   38    -1.000000   120.000000    -0.816497     0.471405     0.333333     0.000000     0.000000     0.000000
   39     1.000000   180.000000    -0.707107     0.408248    -0.577350     0.000000     0.000000     0.000000
   40    -1.000000   180.000000    -0.707107     0.408248    -0.577350     0.000000     0.000000     0.000000
   41     1.000000   120.000000     0.000000     0.000000     1.000000     0.000000     0.000000     0.000000
   42    -1.000000   120.000000     0.000000     0.000000     1.000000     0.000000     0.000000     0.000000
   43     1.000000   180.000000     0.000000    -0.577350     0.816497     0.000000     0.000000     0.000000
   44    -1.000000   180.000000     0.000000    -0.577350     0.816497     0.000000     0.000000     0.000000
   45     1.000000   180.000000     0.500000    -0.866025     0.000000     0.000000     0.000000     0.000000
   46    -1.000000   180.000000     0.500000    -0.866025     0.000000     0.000000     0.000000     0.000000
   47     1.000000   179.999999    -0.500000     0.288675     0.816497     0.000000     0.000000     0.000000
   48    -1.000000   179.999999    -0.500000     0.288675     0.816497     0.000000     0.000000     0.000000
 
 Subroutine IBZKPT returns following result:
 ===========================================
 
 Found     60 irreducible k-points:
 
 Following reciprocal coordinates:
            Coordinates               Weight
  0.062500  0.062500  0.062500     96.000000
  0.187500  0.062500  0.062500    288.000000
  0.312500  0.062500  0.062500    288.000000
  0.437500  0.062500  0.062500    288.000000
 -0.437500  0.062500  0.062500    288.000000
 -0.312500  0.062500  0.062500    288.000000
 -0.187500  0.062500  0.062500    288.000000
 -0.062500  0.062500  0.062500    288.000000
  0.187500  0.187500  0.062500    288.000000
  0.312500  0.187500  0.062500    576.000000
  0.437500  0.187500  0.062500    576.000000
 -0.437500  0.187500  0.062500    576.000000
 -0.312500  0.187500  0.062500    576.000000
 -0.187500  0.187500  0.062500    576.000000
 -0.062500  0.187500  0.062500    576.000000
  0.312500  0.312500  0.062500    288.000000
  0.437500  0.312500  0.062500    576.000000
 -0.437500  0.312500  0.062500    576.000000
 -0.312500  0.312500  0.062500    576.000000
 -0.187500  0.312500  0.062500    576.000000
 -0.062500  0.312500  0.062500    576.000000
  0.437500  0.437500  0.062500    288.000000
 -0.437500  0.437500  0.062500    576.000000
 -0.312500  0.437500  0.062500    576.000000
 -0.187500  0.437500  0.062500    576.000000
 -0.062500  0.437500  0.062500    576.000000
 -0.437500 -0.437500  0.062500    288.000000
 -0.312500 -0.437500  0.062500    576.000000
 -0.187500 -0.437500  0.062500    576.000000
 -0.312500 -0.312500  0.062500    288.000000
 -0.187500 -0.312500  0.062500    576.000000
 -0.187500 -0.187500  0.062500    288.000000
  0.187500  0.187500  0.187500     96.000000
  0.312500  0.187500  0.187500    288.000000
  0.437500  0.187500  0.187500    288.000000
 -0.437500  0.187500  0.187500    288.000000
 -0.312500  0.187500  0.187500    288.000000
 -0.187500  0.187500  0.187500    288.000000
  0.312500  0.312500  0.187500    288.000000
  0.437500  0.312500  0.187500    576.000000
 -0.437500  0.312500  0.187500    576.000000
 -0.312500  0.312500  0.187500    576.000000
 -0.187500  0.312500  0.187500    576.000000
  0.437500  0.437500  0.187500    288.000000
 -0.437500  0.437500  0.187500    576.000000
 -0.312500  0.437500  0.187500    576.000000
 -0.187500  0.437500  0.187500    576.000000
 -0.437500 -0.437500  0.187500    288.000000
 -0.312500 -0.437500  0.187500    576.000000
 -0.312500 -0.312500  0.187500    288.000000
  0.312500  0.312500  0.312500     96.000000
  0.437500  0.312500  0.312500    288.000000
 -0.437500  0.312500  0.312500    288.000000
 -0.312500  0.312500  0.312500    288.000000
  0.437500  0.437500  0.312500    288.000000
 -0.437500  0.437500  0.312500    576.000000
 -0.312500  0.437500  0.312500    576.000000
 -0.437500 -0.437500  0.312500    288.000000
  0.437500  0.437500  0.437500     96.000000
 -0.437500  0.437500  0.437500    288.000000
 
 Following cartesian coordinates:
            Coordinates               Weight
  0.023490  0.013562  0.009590     96.000000
  0.070470 -0.013562 -0.009590    288.000000
  0.117450 -0.040686 -0.028769    288.000000
  0.164430 -0.067810 -0.047949    288.000000
 -0.164430  0.122058  0.086308    288.000000
 -0.117450  0.094934  0.067128    288.000000
 -0.070470  0.067810  0.047949    288.000000
 -0.023490  0.040686  0.028769    288.000000
  0.070470  0.040686 -0.028769    288.000000
  0.117450  0.013562 -0.047949    576.000000
  0.164430 -0.013562 -0.067128    576.000000
 -0.164430  0.176306  0.067128    576.000000
 -0.117450  0.149182  0.047949    576.000000
 -0.070470  0.122058  0.028769    576.000000
 -0.023490  0.094934  0.009590    576.000000
  0.117450  0.067810 -0.067128    288.000000
  0.164430  0.040686 -0.086308    576.000000
 -0.164430  0.230554  0.047949    576.000000
 -0.117450  0.203430  0.028769    576.000000
 -0.070470  0.176306  0.009590    576.000000
 -0.023490  0.149182 -0.009590    576.000000
  0.164430  0.094934 -0.105487    288.000000
 -0.164430  0.284802  0.028769    576.000000
 -0.117450  0.257678  0.009590    576.000000
 -0.070470  0.230554 -0.009590    576.000000
 -0.023490  0.203430 -0.028769    576.000000
 -0.164430 -0.094934  0.163026    288.000000
 -0.117450 -0.122058  0.143847    576.000000
 -0.070470 -0.149182  0.124667    576.000000
 -0.117450 -0.067810  0.124667    288.000000
 -0.070470 -0.094934  0.105487    576.000000
 -0.070470 -0.040686  0.086308    288.000000
  0.070470  0.040686  0.028769     96.000000
  0.117450  0.013562  0.009590    288.000000
  0.164430 -0.013562 -0.009590    288.000000
 -0.164430  0.176306  0.124667    288.000000
 -0.117450  0.149182  0.105487    288.000000
 -0.070470  0.122058  0.086308    288.000000
  0.117450  0.067810 -0.009590    288.000000
  0.164430  0.040686 -0.028769    576.000000
 -0.164430  0.230554  0.105487    576.000000
 -0.117450  0.203430  0.086308    576.000000
 -0.070470  0.176306  0.067128    576.000000
  0.164430  0.094934 -0.047949    288.000000
 -0.164430  0.284802  0.086308    576.000000
 -0.117450  0.257678  0.067128    576.000000
 -0.070470  0.230554  0.047949    576.000000
 -0.164430 -0.094934  0.220565    288.000000
 -0.117450 -0.122058  0.201385    576.000000
 -0.117450 -0.067810  0.182206    288.000000
  0.117450  0.067810  0.047949     96.000000
  0.164430  0.040686  0.028769    288.000000
 -0.164430  0.230554  0.163026    288.000000
 -0.117450  0.203430  0.143847    288.000000
  0.164430  0.094934  0.009590    288.000000
 -0.164430  0.284802  0.143847    576.000000
 -0.117450  0.257678  0.124667    576.000000
 -0.164430 -0.094934  0.278103    288.000000
  0.164430  0.094934  0.067128     96.000000
 -0.164430  0.284802  0.201385    288.000000
 


--------------------------------------------------------------------------------------------------------




 Dimension of arrays:
   k-points           NKPTS =     60   k-points in BZ     NKDIM =     60   number of bands    NBANDS=      9
   number of dos      NEDOS =    301   number of ions     NIONS =      1
   non local maximal  LDIM  =      6   non local SUM 2l+1 LMDIM =     18
   total plane-waves  NPLWV =   1728
   max r-space proj   IRMAX =      1   max aug-charges    IRDMAX=   6578
   dimension x,y,z NGX =    12 NGY =   12 NGZ =   12
   dimension x,y,z NGXF=    24 NGYF=   24 NGZF=   24
   support grid    NGXF=    24 NGYF=   24 NGZF=   24
   ions per type =               1
 NGX,Y,Z   is equivalent  to a cutoff of   7.50,  7.50,  7.50 a.u.
 NGXF,Y,Z  is equivalent  to a cutoff of  15.00, 15.00, 15.00 a.u.


 I would recommend the setting:
   dimension x,y,z NGX =    12 NGY =   12 NGZ =   12
 SYSTEM =  unknown system                          
 POSCAR =  Ag                                      

 Startparameter for this run:
   NWRITE =      2    write-flag & timer
   PREC   = normal    normal or accurate (medium, high low for compatibility)
   ISTART =      0    job   : 0-new  1-cont  2-samecut
   ICHARG =      2    charge: 1-file 2-atom 10-const
   ISPIN  =      1    spin polarized calculation?
   LNONCOLLINEAR =      F non collinear calculations
   LSORBIT =      F    spin-orbit coupling
   INIWAV =      1    electr: 0-lowe 1-rand  2-diag
   LASPH  =      F    aspherical Exc in radial PAW
   METAGGA=      F    non-selfconsistent MetaGGA calc.

 Electronic Relaxation 1
   ENCUT  =  350.0 eV  25.72 Ry    5.07 a.u.   4.06  4.06  4.06*2*pi/ulx,y,z
   ENINI  =  350.0     initial cutoff
   ENAUG  =  412.5 eV  augmentation charge cutoff
   NELM   =     60;   NELMIN=  2; NELMDL= -5     # of ELM steps 
   EDIFF  = 0.1E-03   stopping-criterion for ELM
   LREAL  =      F    real-space projection
   NLSPLINE    = F    spline interpolate recip. space projectors
   LCOMPAT=      F    compatible to vasp.4.4
   GGA_COMPAT  = T    GGA compatible to vasp.4.4-vasp.4.6
   LMAXPAW     = -100 max onsite density
   LMAXMIX     =    2 max onsite mixed and CHGCAR
   VOSKOWN=      0    Vosko Wilk Nusair interpolation
   ROPT   =    0.00000
 Ionic relaxation
   EDIFFG = 0.1E-02   stopping-criterion for IOM
   NSW    =     30    number of steps for IOM
   NBLOCK =      1;   KBLOCK =     30    inner block; outer block 
   IBRION =      2    ionic relax: 0-MD 1-quasi-New 2-CG
   NFREE  =      1    steps in history (QN), initial steepest desc. (CG)
   ISIF   =      2    stress and relaxation
   IWAVPR =     11    prediction:  0-non 1-charg 2-wave 3-comb
   ISYM   =      2    0-nonsym 1-usesym 2-fastsym
   LCORR  =      T    Harris-Foulkes like correction to forces

   POTIM  = 0.5000    time-step for ionic-motion
   TEIN   =    0.0    initial temperature
   TEBEG  =    0.0;   TEEND  =   0.0 temperature during run
   SMASS  =  -3.00    Nose mass-parameter (am)
   estimated Nose-frequenzy (Omega)   =  0.10E-29 period in steps =****** mass=  -0.162E-27a.u.
   SCALEE = 1.0000    scale energy and forces
   NPACO  =    256;   APACO  = 16.0  distance and # of slots for P.C.
   PSTRESS=    0.0 pullay stress

  Mass of Ions in am
   POMASS = 107.87
  Ionic Valenz
   ZVAL   =  11.00
  Atomic Wigner-Seitz radii
   RWIGS  =  -1.00
  virtual crystal weights 
   VCA    =   1.00
   NELECT =      11.0000    total number of electrons
   NUPDOWN=      -1.0000    fix difference up-down

 DOS related values:
   EMIN   =  10.00;   EMAX   =-10.00  energy-range for DOS
   EFERMI =   0.00
   ISMEAR =     1;   SIGMA  =   0.20  broadening in eV -4-tet -1-fermi 0-gaus

 Electronic relaxation 2 (details)
   IALGO  =     38    algorithm
   LDIAG  =      T    sub-space diagonalisation (order eigenvalues)
   LSUBROT=      F    optimize rotation matrix (better conditioning)
   TURBO    =      0    0=normal 1=particle mesh
   IRESTART =      0    0=no restart 2=restart with 2 vectors
   NREBOOT  =      0    no. of reboots
   NMIN     =      0    reboot dimension
   EREF     =   0.00    reference energy to select bands
   IMIX   =      4    mixing-type and parameters
     AMIX     =   0.40;   BMIX     =  1.00
     AMIX_MAG =   1.60;   BMIX_MAG =  1.00
     AMIN     =   0.10
     WC   =   100.;   INIMIX=   1;  MIXPRE=   1;  MAXMIX= -45

 Intra band minimization:
   WEIMIN = 0.0010     energy-eigenvalue tresh-hold
   EBREAK =  0.28E-05  absolut break condition
   DEPER  =   0.30     relativ break condition  

   TIME   =   0.40     timestep for ELM

  volume/ion in A,a.u.               =      13.32        89.88
  Fermi-wavevector in a.u.,A,eV,Ry     =   1.535965  2.902553 32.098698  2.359188
  Thomas-Fermi vector in A             =   2.642680
 
 Write flags
   LWAVE  =      T    write WAVECAR
   LCHARG =      T    write CHGCAR
   LVTOT  =      F    write LOCPOT, total local potential
   LVHAR  =      F    write LOCPOT, Hartree potential only
   LELF   =      F    write electronic localiz. function (ELF)
   LORBIT =      0    0 simple, 1 ext, 2 COOP (PROOUT)


 Dipole corrections
   LMONO  =      F    monopole corrections only (constant potential shift)
   LDIPOL =      F    correct potential (dipole corrections)
   IDIPOL =      0    1-x, 2-y, 3-z, 4-all directions 
   EPSILON=  1.0000000 bulk dielectric constant

 Exchange correlation treatment:
   GGA     =    --    GGA type
   LEXCH   =     8    internal setting for exchange type
   VOSKOWN=      0    Vosko Wilk Nusair interpolation
   LHFCALC =     F    Hartree Fock is set to
   LHFONE  =     F    Hartree Fock one center treatment
   AEXX    =    0.0000 exact exchange contribution

 Linear response parameters
   LEPSILON=     F    determine dielectric tensor
   LRPA    =     F    only Hartree local field effects (RPA)
   LNABLA  =     F    use nabla operator in PAW spheres
   LVEL    =     F    velocity operator in full k-point grid
   LINTERFAST=   F  fast interpolation
   KINTER  =     0    interpolate to denser k-point grid
   CSHIFT  =0.1000    complex shift for real part using Kramers Kronig
   OMEGAMAX=  -1.0    maximum frequency
   DEG_THRESHOLD= 0.2000000E-02 threshold for treating states as degnerate
   RTIME   =    0.100 relaxation time in fs

 Orbital magnetization related:
   ORBITALMAG=     F  switch on orbital magnetization
   LCHIMAG   =     F  perturbation theory with respect to B field
   DQ        =  0.001000  dq finite difference perturbation B field



--------------------------------------------------------------------------------------------------------


 conjugate gradient relaxation of ions
 charge density and potential will be updated during run
 non-spin polarized calculation
 Variant of blocked Davidson
 Davidson routine will perform the subspace rotation
 perform sub-space diagonalisation
    after iterative eigenvector-optimisation
 modified Broyden-mixing scheme, WC =      100.0
 initial mixing is a Kerker type mixing with AMIX =  0.4000 and BMIX =      1.0000
 Hartree-type preconditioning will be used
 using additional bands            3
 reciprocal scheme for non local part
 use partial core corrections
 calculate Harris-corrections to forces 
   (improved forces if not selfconsistent)
 use gradient corrections 
 use of overlap-Matrix (Vanderbilt PP)
 Methfessel and Paxton  Order N= 1 SIGMA  =   0.20


--------------------------------------------------------------------------------------------------------


  energy-cutoff  :      350.00
  volume of cell :       13.32
      direct lattice vectors                 reciprocal lattice vectors
     2.660701396  0.000000000  0.000000000     0.375840747 -0.216991756 -0.153436342
     1.330350698  2.304235001  0.000000000     0.000000000  0.433983513 -0.153436342
     1.330350698  0.768078334  2.172453593     0.000000000  0.000000000  0.460309027

  length of vectors
     2.660701396  2.660701396  2.660701396     0.460309027  0.460309027  0.460309027


 
 k-points in units of 2pi/SCALE and weight: KPOINTS created by Atomic Simulation Env
   0.02349005  0.01356198  0.00958977       0.004
   0.07047014 -0.01356198 -0.00958977       0.012
   0.11745023 -0.04068595 -0.02876931       0.012
   0.16443033 -0.06780992 -0.04794886       0.012
  -0.16443033  0.12205786  0.08630794       0.012
  -0.11745023  0.09493389  0.06712840       0.012
  -0.07047014  0.06780992  0.04794886       0.012
  -0.02349005  0.04068595  0.02876931       0.012
   0.07047014  0.04068595 -0.02876931       0.012
   0.11745023  0.01356198 -0.04794886       0.023
   0.16443033 -0.01356198 -0.06712840       0.023
  -0.16443033  0.17630580  0.06712840       0.023
  -0.11745023  0.14918183  0.04794886       0.023
  -0.07047014  0.12205786  0.02876931       0.023
  -0.02349005  0.09493389  0.00958977       0.023
   0.11745023  0.06780992 -0.06712840       0.012
   0.16443033  0.04068595 -0.08630794       0.023
  -0.16443033  0.23055374  0.04794886       0.023
  -0.11745023  0.20342977  0.02876931       0.023
  -0.07047014  0.17630580  0.00958977       0.023
  -0.02349005  0.14918183 -0.00958977       0.023
   0.16443033  0.09493389 -0.10548749       0.012
  -0.16443033  0.28480168  0.02876931       0.023
  -0.11745023  0.25767771  0.00958977       0.023
  -0.07047014  0.23055374 -0.00958977       0.023
  -0.02349005  0.20342977 -0.02876931       0.023
  -0.16443033 -0.09493389  0.16302611       0.012
  -0.11745023 -0.12205786  0.14384657       0.023
  -0.07047014 -0.14918183  0.12466703       0.023
  -0.11745023 -0.06780992  0.12466703       0.012
  -0.07047014 -0.09493389  0.10548749       0.023
  -0.07047014 -0.04068595  0.08630794       0.012
   0.07047014  0.04068595  0.02876931       0.004
   0.11745023  0.01356198  0.00958977       0.012
   0.16443033 -0.01356198 -0.00958977       0.012
  -0.16443033  0.17630580  0.12466703       0.012
  -0.11745023  0.14918183  0.10548749       0.012
  -0.07047014  0.12205786  0.08630794       0.012
   0.11745023  0.06780992 -0.00958977       0.012
   0.16443033  0.04068595 -0.02876931       0.023
  -0.16443033  0.23055374  0.10548749       0.023
  -0.11745023  0.20342977  0.08630794       0.023
  -0.07047014  0.17630580  0.06712840       0.023
   0.16443033  0.09493389 -0.04794886       0.012
  -0.16443033  0.28480168  0.08630794       0.023
  -0.11745023  0.25767771  0.06712840       0.023
  -0.07047014  0.23055374  0.04794886       0.023
  -0.16443033 -0.09493389  0.22056474       0.012
  -0.11745023 -0.12205786  0.20138520       0.023
  -0.11745023 -0.06780992  0.18220566       0.012
   0.11745023  0.06780992  0.04794886       0.004
   0.16443033  0.04068595  0.02876931       0.012
  -0.16443033  0.23055374  0.16302611       0.012
  -0.11745023  0.20342977  0.14384657       0.012
   0.16443033  0.09493389  0.00958977       0.012
  -0.16443033  0.28480168  0.14384657       0.023
  -0.11745023  0.25767771  0.12466703       0.023
  -0.16443033 -0.09493389  0.27810337       0.012
   0.16443033  0.09493389  0.06712840       0.004
  -0.16443033  0.28480168  0.20138520       0.012
 
 k-points in reciprocal lattice and weights: KPOINTS created by Atomic Simulation Env
   0.06250000  0.06250000  0.06250000       0.004
   0.18750000  0.06250000  0.06250000       0.012
   0.31250000  0.06250000  0.06250000       0.012
   0.43750000  0.06250000  0.06250000       0.012
  -0.43750000  0.06250000  0.06250000       0.012
  -0.31250000  0.06250000  0.06250000       0.012
  -0.18750000  0.06250000  0.06250000       0.012
  -0.06250000  0.06250000  0.06250000       0.012
   0.18750000  0.18750000  0.06250000       0.012
   0.31250000  0.18750000  0.06250000       0.023
   0.43750000  0.18750000  0.06250000       0.023
  -0.43750000  0.18750000  0.06250000       0.023
  -0.31250000  0.18750000  0.06250000       0.023
  -0.18750000  0.18750000  0.06250000       0.023
  -0.06250000  0.18750000  0.06250000       0.023
   0.31250000  0.31250000  0.06250000       0.012
   0.43750000  0.31250000  0.06250000       0.023
  -0.43750000  0.31250000  0.06250000       0.023
  -0.31250000  0.31250000  0.06250000       0.023
  -0.18750000  0.31250000  0.06250000       0.023
  -0.06250000  0.31250000  0.06250000       0.023
   0.43750000  0.43750000  0.06250000       0.012
  -0.43750000  0.43750000  0.06250000       0.023
  -0.31250000  0.43750000  0.06250000       0.023
  -0.18750000  0.43750000  0.06250000       0.023
  -0.06250000  0.43750000  0.06250000       0.023
  -0.43750000 -0.43750000  0.06250000       0.012
  -0.31250000 -0.43750000  0.06250000       0.023
  -0.18750000 -0.43750000  0.06250000       0.023
  -0.31250000 -0.31250000  0.06250000       0.012
  -0.18750000 -0.31250000  0.06250000       0.023
  -0.18750000 -0.18750000  0.06250000       0.012
   0.18750000  0.18750000  0.18750000       0.004
   0.31250000  0.18750000  0.18750000       0.012
   0.43750000  0.18750000  0.18750000       0.012
  -0.43750000  0.18750000  0.18750000       0.012
  -0.31250000  0.18750000  0.18750000       0.012
  -0.18750000  0.18750000  0.18750000       0.012
   0.31250000  0.31250000  0.18750000       0.012
   0.43750000  0.31250000  0.18750000       0.023
  -0.43750000  0.31250000  0.18750000       0.023
  -0.31250000  0.31250000  0.18750000       0.023
  -0.18750000  0.31250000  0.18750000       0.023
   0.43750000  0.43750000  0.18750000       0.012
  -0.43750000  0.43750000  0.18750000       0.023
  -0.31250000  0.43750000  0.18750000       0.023
  -0.18750000  0.43750000  0.18750000       0.023
  -0.43750000 -0.43750000  0.18750000       0.012
  -0.31250000 -0.43750000  0.18750000       0.023
  -0.31250000 -0.31250000  0.18750000       0.012
   0.31250000  0.31250000  0.31250000       0.004
   0.43750000  0.31250000  0.31250000       0.012
  -0.43750000  0.31250000  0.31250000       0.012
  -0.31250000  0.31250000  0.31250000       0.012
   0.43750000  0.43750000  0.31250000       0.012
  -0.43750000  0.43750000  0.31250000       0.023
  -0.31250000  0.43750000  0.31250000       0.023
  -0.43750000 -0.43750000  0.31250000       0.012
   0.43750000  0.43750000  0.43750000       0.004
  -0.43750000  0.43750000  0.43750000       0.012
 
 position of ions in fractional coordinates (direct lattice) 
   0.00000000  0.00000000  0.00000000
 
 position of ions in cartesian coordinates  (Angst):
   0.00000000  0.00000000  0.00000000
 


--------------------------------------------------------------------------------------------------------


 k-point  1 :   0.0625 0.0625 0.0625  plane waves:     178
 k-point  2 :   0.1875 0.0625 0.0625  plane waves:     183
 k-point  3 :   0.3125 0.0625 0.0625  plane waves:     196
 k-point  4 :   0.4375 0.0625 0.0625  plane waves:     196
 k-point  5 :  -0.4375 0.0625 0.0625  plane waves:     198
 k-point  6 :  -0.3125 0.0625 0.0625  plane waves:     196
 k-point  7 :  -0.1875 0.0625 0.0625  plane waves:     196
 k-point  8 :  -0.0625 0.0625 0.0625  plane waves:     180
 k-point  9 :   0.1875 0.1875 0.0625  plane waves:     191
 k-point 10 :   0.3125 0.1875 0.0625  plane waves:     197
 k-point 11 :   0.4375 0.1875 0.0625  plane waves:     198
 k-point 12 :  -0.4375 0.1875 0.0625  plane waves:     196
 k-point 13 :  -0.3125 0.1875 0.0625  plane waves:     198
 k-point 14 :  -0.1875 0.1875 0.0625  plane waves:     200
 k-point 15 :  -0.0625 0.1875 0.0625  plane waves:     191
 k-point 16 :   0.3125 0.3125 0.0625  plane waves:     198
 k-point 17 :   0.4375 0.3125 0.0625  plane waves:     201
 k-point 18 :  -0.4375 0.3125 0.0625  plane waves:     198
 k-point 19 :  -0.3125 0.3125 0.0625  plane waves:     198
 k-point 20 :  -0.1875 0.3125 0.0625  plane waves:     198
 k-point 21 :  -0.0625 0.3125 0.0625  plane waves:     197
 k-point 22 :   0.4375 0.4375 0.0625  plane waves:     201
 k-point 23 :  -0.4375 0.4375 0.0625  plane waves:     203
 k-point 24 :  -0.3125 0.4375 0.0625  plane waves:     200
 k-point 25 :  -0.1875 0.4375 0.0625  plane waves:     198
 k-point 26 :  -0.0625 0.4375 0.0625  plane waves:     198
 k-point 27 :  -0.4375-0.4375 0.0625  plane waves:     199
 k-point 28 :  -0.3125-0.4375 0.0625  plane waves:     203
 k-point 29 :  -0.1875-0.4375 0.0625  plane waves:     199
 k-point 30 :  -0.3125-0.3125 0.0625  plane waves:     202
 k-point 31 :  -0.1875-0.3125 0.0625  plane waves:     197
 k-point 32 :  -0.1875-0.1875 0.0625  plane waves:     193
 k-point 33 :   0.1875 0.1875 0.1875  plane waves:     193
 k-point 34 :   0.3125 0.1875 0.1875  plane waves:     194
 k-point 35 :   0.4375 0.1875 0.1875  plane waves:     199
 k-point 36 :  -0.4375 0.1875 0.1875  plane waves:     198
 k-point 37 :  -0.3125 0.1875 0.1875  plane waves:     199
 k-point 38 :  -0.1875 0.1875 0.1875  plane waves:     196
 k-point 39 :   0.3125 0.3125 0.1875  plane waves:     196
 k-point 40 :   0.4375 0.3125 0.1875  plane waves:     198
 k-point 41 :  -0.4375 0.3125 0.1875  plane waves:     198
 k-point 42 :  -0.3125 0.3125 0.1875  plane waves:     199
 k-point 43 :  -0.1875 0.3125 0.1875  plane waves:     199
 k-point 44 :   0.4375 0.4375 0.1875  plane waves:     197
 k-point 45 :  -0.4375 0.4375 0.1875  plane waves:     201
 k-point 46 :  -0.3125 0.4375 0.1875  plane waves:     203
 k-point 47 :  -0.1875 0.4375 0.1875  plane waves:     201
 k-point 48 :  -0.4375-0.4375 0.1875  plane waves:     200
 k-point 49 :  -0.3125-0.4375 0.1875  plane waves:     202
 k-point 50 :  -0.3125-0.3125 0.1875  plane waves:     201
 k-point 51 :   0.3125 0.3125 0.3125  plane waves:     199
 k-point 52 :   0.4375 0.3125 0.3125  plane waves:     195
 k-point 53 :  -0.4375 0.3125 0.3125  plane waves:     198
 k-point 54 :  -0.3125 0.3125 0.3125  plane waves:     192
 k-point 55 :   0.4375 0.4375 0.3125  plane waves:     198
 k-point 56 :  -0.4375 0.4375 0.3125  plane waves:     197
 k-point 57 :  -0.3125 0.4375 0.3125  plane waves:     200
 k-point 58 :  -0.4375-0.4375 0.3125  plane waves:     198
 k-point 59 :   0.4375 0.4375 0.4375  plane waves:     195
 k-point 60 :  -0.4375 0.4375 0.4375  plane waves:     202

 maximum number of plane-waves:       203
 maximum index in each direction: 
   IXMAX=    4   IYMAX=    4   IZMAX=    3
   IXMIN=   -4   IYMIN=   -4   IZMIN=   -4

 WARNING: aliasing errors must be expected set NGX to  18 to avoid them
 WARNING: aliasing errors must be expected set NGY to  18 to avoid them
 WARNING: aliasing errors must be expected set NGZ to  16 to avoid them
 aliasing errors are usually negligible using standard VASP settings
 and one can safely disregard these warnings

 total amount of memory used by VASP on root node    34452. kBytes
========================================================================

   base      :      30000. kBytes
   nonl-proj :       1757. kBytes
   grid      :        771. kBytes
   one-center:         15. kBytes
   wavefun   :       1909. kBytes
 
     INWAV:  cpu time    0.00: real time    0.00
 Broyden mixing: mesh for mixing (old mesh)
   NGX =  9   NGY =  9   NGZ =  9
  (NGX  = 24   NGY  = 24   NGZ  = 24)
  gives a total of    729 points

 initial charge density was supplied:
 charge density of overlapping atoms calculated
 number of electron      11.0000000 magnetization 
 keeping initial charge density in first step


--------------------------------------------------------------------------------------------------------


 Maximum index for augmentation-charges         6099 (set IRDMAX)


--------------------------------------------------------------------------------------------------------


 First call to EWALD:  gamma=   0.748
 Maximum number of real-space cells 3x 3x 3
 Maximum number of reciprocal cells 3x 3x 3

    FEWALD:  cpu time    0.00: real time    0.00


----------------------------------------- Iteration    1(   1)  ---------------------------------------


    POTLOK:  cpu time    0.01: real time    0.01
    SETDIJ:  cpu time    0.01: real time    0.01
     EDDAV:  cpu time    0.38: real time    0.38
       DOS:  cpu time    0.00: real time    0.00
    --------------------------------------------
      LOOP:  cpu time    0.40: real time    0.41

 eigenvalue-minimisations  :  1240
 total energy-change (2. order) : 0.2853636E+02  (-0.4773217E+03)
 number of electron      11.0000000 magnetization 
 augmentation part       11.0000000 magnetization 

 Free energy of the ion-electron system (eV)
  ---------------------------------------------------
  alpha Z        PSCENC =        63.86174276
  Ewald energy   TEWEN  =     -1061.51610552
  -Hartree energ DENC   =      -165.39757121
  -exchange      EXHF   =         0.00000000
  -V(xc)+E(xc)   XCENC  =        -9.60553193
  PAW double counting   =      1003.46214933     -957.34927423
  entropy T*S    EENTRO =        -0.00269223
  eigenvalues    EBANDS =       117.84336916
  atomic energy  EATOM  =      1037.24027811
  ---------------------------------------------------
  free energy    TOTEN  =        28.53636424 eV

  energy without entropy =       28.53905647  energy(sigma->0) =       28.53726165


--------------------------------------------------------------------------------------------------------




----------------------------------------- Iteration    1(   2)  ---------------------------------------


     EDDAV:  cpu time    0.35: real time    0.35
       DOS:  cpu time    0.00: real time    0.00
    --------------------------------------------
      LOOP:  cpu time    0.36: real time    0.37

 eigenvalue-minimisations  :  1119
 total energy-change (2. order) :-0.3073805E+02  (-0.2920950E+02)
 number of electron      11.0000000 magnetization 
 augmentation part       11.0000000 magnetization 

 Free energy of the ion-electron system (eV)
  ---------------------------------------------------
  alpha Z        PSCENC =        63.86174276
  Ewald energy   TEWEN  =     -1061.51610552
  -Hartree energ DENC   =      -165.39757121
  -exchange      EXHF   =         0.00000000
  -V(xc)+E(xc)   XCENC  =        -9.60553193
  PAW double counting   =      1003.46214933     -957.34927423
  entropy T*S    EENTRO =         0.00107760
  eigenvalues    EBANDS =        87.10154782
  atomic energy  EATOM  =      1037.24027811
  ---------------------------------------------------
  free energy    TOTEN  =        -2.20168728 eV

  energy without entropy =       -2.20276488  energy(sigma->0) =       -2.20204648


--------------------------------------------------------------------------------------------------------




----------------------------------------- Iteration    1(   3)  ---------------------------------------


     EDDAV:  cpu time    0.42: real time    0.42
       DOS:  cpu time    0.01: real time    0.01
    --------------------------------------------
      LOOP:  cpu time    0.42: real time    0.42

 eigenvalue-minimisations  :  1254
 total energy-change (2. order) :-0.2007219E+00  (-0.2007075E+00)
 number of electron      11.0000000 magnetization 
 augmentation part       11.0000000 magnetization 

 Free energy of the ion-electron system (eV)
  ---------------------------------------------------
  alpha Z        PSCENC =        63.86174276
  Ewald energy   TEWEN  =     -1061.51610552
  -Hartree energ DENC   =      -165.39757121
  -exchange      EXHF   =         0.00000000
  -V(xc)+E(xc)   XCENC  =        -9.60553193
  PAW double counting   =      1003.46214933     -957.34927423
  entropy T*S    EENTRO =         0.00097117
  eigenvalues    EBANDS =        86.90093234
  atomic energy  EATOM  =      1037.24027811
  ---------------------------------------------------
  free energy    TOTEN  =        -2.40240918 eV

  energy without entropy =       -2.40338036  energy(sigma->0) =       -2.40273291


--------------------------------------------------------------------------------------------------------




----------------------------------------- Iteration    1(   4)  ---------------------------------------


     EDDAV:  cpu time    0.37: real time    0.37
       DOS:  cpu time    0.00: real time    0.01
    --------------------------------------------
      LOOP:  cpu time    0.38: real time    0.39

 eigenvalue-minimisations  :  1207
 total energy-change (2. order) :-0.3679599E-03  (-0.3679543E-03)
 number of electron      11.0000000 magnetization 
 augmentation part       11.0000000 magnetization 

 Free energy of the ion-electron system (eV)
  ---------------------------------------------------
  alpha Z        PSCENC =        63.86174276
  Ewald energy   TEWEN  =     -1061.51610552
  -Hartree energ DENC   =      -165.39757121
  -exchange      EXHF   =         0.00000000
  -V(xc)+E(xc)   XCENC  =        -9.60553193
  PAW double counting   =      1003.46214933     -957.34927423
  entropy T*S    EENTRO =         0.00097106
  eigenvalues    EBANDS =        86.90056449
  atomic energy  EATOM  =      1037.24027811
  ---------------------------------------------------
  free energy    TOTEN  =        -2.40277714 eV

  energy without entropy =       -2.40374820  energy(sigma->0) =       -2.40310083


--------------------------------------------------------------------------------------------------------




----------------------------------------- Iteration    1(   5)  ---------------------------------------


     EDDAV:  cpu time    0.35: real time    0.35
       DOS:  cpu time    0.00: real time    0.00
    CHARGE:  cpu time    0.03: real time    0.03
    MIXING:  cpu time    0.00: real time    0.00
    --------------------------------------------
      LOOP:  cpu time    0.38: real time    0.44

 eigenvalue-minimisations  :  1076
 total energy-change (2. order) :-0.1881578E-05  (-0.1881061E-05)
 number of electron      11.0000044 magnetization 
 augmentation part        5.0278529 magnetization 

 Broyden mixing:
  rms(total) = 0.10760E+01    rms(broyden)= 0.10760E+01
  rms(prec ) = 0.17423E+01
  weight for this iteration     100.00

 Free energy of the ion-electron system (eV)
  ---------------------------------------------------
  alpha Z        PSCENC =        63.86174276
  Ewald energy   TEWEN  =     -1061.51610552
  -Hartree energ DENC   =      -165.39757121
  -exchange      EXHF   =         0.00000000
  -V(xc)+E(xc)   XCENC  =        -9.60553193
  PAW double counting   =      1003.46214933     -957.34927423
  entropy T*S    EENTRO =         0.00097106
  eigenvalues    EBANDS =        86.90056261
  atomic energy  EATOM  =      1037.24027811
  ---------------------------------------------------
  free energy    TOTEN  =        -2.40277903 eV

  energy without entropy =       -2.40375008  energy(sigma->0) =       -2.40310271


--------------------------------------------------------------------------------------------------------




----------------------------------------- Iteration    1(   6)  ---------------------------------------


    POTLOK:  cpu time    0.01: real time    0.02
    SETDIJ:  cpu time    0.01: real time    0.01
     EDDAV:  cpu time    0.38: real time    0.38
       DOS:  cpu time    0.00: real time    0.00
    CHARGE:  cpu time    0.03: real time    0.03
    MIXING:  cpu time    0.00: real time    0.00
    --------------------------------------------
      LOOP:  cpu time    0.43: real time    0.45

 eigenvalue-minimisations  :  1095
 total energy-change (2. order) : 0.2700139E+00  (-0.9007960E-01)
 number of electron      11.0000045 magnetization 
 augmentation part        5.1670514 magnetization 

 Broyden mixing:
  rms(total) = 0.62783E+00    rms(broyden)= 0.62782E+00
  rms(prec ) = 0.72365E+00
  weight for this iteration     100.00

 eigenvalues of (default mixing * dielectric matrix)
  average eigenvalue GAMMA=   2.1094
  2.1094

 Free energy of the ion-electron system (eV)
  ---------------------------------------------------
  alpha Z        PSCENC =        63.86174276
  Ewald energy   TEWEN  =     -1061.51610552
  -Hartree energ DENC   =      -155.95724206
  -exchange      EXHF   =         0.00000000
  -V(xc)+E(xc)   XCENC  =        -9.93413395
  PAW double counting   =      1112.36028851    -1068.12100672
  entropy T*S    EENTRO =         0.00087845
  eigenvalues    EBANDS =        79.93253530
  atomic energy  EATOM  =      1037.24027811
  ---------------------------------------------------
  free energy    TOTEN  =        -2.13276512 eV

  energy without entropy =       -2.13364356  energy(sigma->0) =       -2.13305793


--------------------------------------------------------------------------------------------------------




----------------------------------------- Iteration    1(   7)  ---------------------------------------


    POTLOK:  cpu time    0.01: real time    0.01
    SETDIJ:  cpu time    0.01: real time    0.01
     EDDAV:  cpu time    0.36: real time    0.36
       DOS:  cpu time    0.00: real time    0.00
    CHARGE:  cpu time    0.03: real time    0.03
    MIXING:  cpu time    0.00: real time    0.00
    --------------------------------------------
      LOOP:  cpu time    0.42: real time    0.43

 eigenvalue-minimisations  :  1152
 total energy-change (2. order) : 0.2825915E-01  (-0.5447789E-02)
 number of electron      11.0000046 magnetization 
 augmentation part        5.2006567 magnetization 

 Broyden mixing:
  rms(total) = 0.26771E+00    rms(broyden)= 0.26771E+00
  rms(prec ) = 0.27324E+00
  weight for this iteration     100.00

 eigenvalues of (default mixing * dielectric matrix)
  average eigenvalue GAMMA=   1.8937
  1.1871  2.6002

 Free energy of the ion-electron system (eV)
  ---------------------------------------------------
  alpha Z        PSCENC =        63.86174276
  Ewald energy   TEWEN  =     -1061.51610552
  -Hartree energ DENC   =      -152.40889019
  -exchange      EXHF   =         0.00000000
  -V(xc)+E(xc)   XCENC  =       -10.05619381
  PAW double counting   =      1204.92866131    -1162.35406872
  entropy T*S    EENTRO =         0.00080892
  eigenvalues    EBANDS =        78.19926117
  atomic energy  EATOM  =      1037.24027811
  ---------------------------------------------------
  free energy    TOTEN  =        -2.10450597 eV

  energy without entropy =       -2.10531489  energy(sigma->0) =       -2.10477561


--------------------------------------------------------------------------------------------------------




----------------------------------------- Iteration    1(   8)  ---------------------------------------


    POTLOK:  cpu time    0.01: real time    0.01
    SETDIJ:  cpu time    0.01: real time    0.01
     EDDAV:  cpu time    0.35: real time    0.36
       DOS:  cpu time    0.00: real time    0.00
    CHARGE:  cpu time    0.03: real time    0.03
    MIXING:  cpu time    0.00: real time    0.00
    --------------------------------------------
      LOOP:  cpu time    0.41: real time    0.42

 eigenvalue-minimisations  :  1138
 total energy-change (2. order) : 0.5208108E-02  (-0.1799458E-03)
 number of electron      11.0000045 magnetization 
 augmentation part        5.1975810 magnetization 

 Broyden mixing:
  rms(total) = 0.15103E-01    rms(broyden)= 0.15103E-01
  rms(prec ) = 0.16166E-01
  weight for this iteration     100.00

 eigenvalues of (default mixing * dielectric matrix)
  average eigenvalue GAMMA=   1.4999
  2.5251  1.1930  0.7815

 Free energy of the ion-electron system (eV)
  ---------------------------------------------------
  alpha Z        PSCENC =        63.86174276
  Ewald energy   TEWEN  =     -1061.51610552
  -Hartree energ DENC   =      -151.33930935
  -exchange      EXHF   =         0.00000000
  -V(xc)+E(xc)   XCENC  =       -10.09332516
  PAW double counting   =      1268.97403280    -1227.60674634
  entropy T*S    EENTRO =         0.00080818
  eigenvalues    EBANDS =        78.37932666
  atomic energy  EATOM  =      1037.24027811
  ---------------------------------------------------
  free energy    TOTEN  =        -2.09929786 eV

  energy without entropy =       -2.10010604  energy(sigma->0) =       -2.09956725


--------------------------------------------------------------------------------------------------------




----------------------------------------- Iteration    1(   9)  ---------------------------------------


    POTLOK:  cpu time    0.01: real time    0.01
    SETDIJ:  cpu time    0.01: real time    0.01
     EDDAV:  cpu time    0.22: real time    0.23
       DOS:  cpu time    0.00: real time    0.00
    --------------------------------------------
      LOOP:  cpu time    0.26: real time    0.27

 eigenvalue-minimisations  :   579
 total energy-change (2. order) :-0.6971097E-05  (-0.6112339E-06)
 number of electron      11.0000045 magnetization 
 augmentation part        5.1975810 magnetization 

 Free energy of the ion-electron system (eV)
  ---------------------------------------------------
  alpha Z        PSCENC =        63.86174276
  Ewald energy   TEWEN  =     -1061.51610552
  -Hartree energ DENC   =      -151.41823571
  -exchange      EXHF   =         0.00000000
  -V(xc)+E(xc)   XCENC  =       -10.09063890
  PAW double counting   =      1266.32203255    -1224.88288265
  entropy T*S    EENTRO =         0.00080904
  eigenvalues    EBANDS =        78.38369549
  atomic energy  EATOM  =      1037.24027811
  ---------------------------------------------------
  free energy    TOTEN  =        -2.09930483 eV

  energy without entropy =       -2.10011387  energy(sigma->0) =       -2.09957451


--------------------------------------------------------------------------------------------------------




 average (electrostatic) potential at core
  the test charge radii are     1.1249
  (the norm of the test charge is              1.0000)
       1 -67.5225
 
 
 
 E-fermi :  12.4894     XC(G=0): -13.7508     alpha+bet :-17.2336


 k-point     1 :       0.0625    0.0625    0.0625
  band No.  band energies     occupation 
      1       2.7579      2.00000
      2       6.4450      2.00000
      3       6.5425      2.00000
      4       6.5425      2.00000
      5       8.0639      2.00000
      6       8.0639      2.00000
      7      28.8346      0.00000
      8      32.7400      0.00000
      9      33.9233      0.00000

 k-point     2 :       0.1875    0.0625    0.0625
  band No.  band energies     occupation 
      1       3.4961      2.00000
      2       6.2220      2.00000
      3       6.7567      2.00000
      4       6.7901      2.00000
      5       7.8454      2.00000
      6       8.1878      2.00000
      7      29.0501      0.00000
      8      30.1698      0.00000
      9      33.4817      0.00000

 k-point     3 :       0.3125    0.0625    0.0625
  band No.  band energies     occupation 
      1       4.4371      2.00000
      2       6.6001      2.00000
      3       6.8323      2.00000
      4       6.8908      2.00000
      5       8.0966      2.00000
      6       8.7995      2.00000
      7      24.7830      0.00000
      8      29.4560      0.00000
      9      33.4657      0.00000

 k-point     4 :       0.4375    0.0625    0.0625
  band No.  band energies     occupation 
      1       4.3397      2.00000
      2       6.4809      2.00000
      3       6.5951      2.00000
      4       8.4589      2.00000
      5       8.8809      2.00000
      6      10.4134      2.00000
      7      19.8910      0.00000
      8      28.3936      0.00000
      9      32.1393      0.00000

 k-point     5 :      -0.4375    0.0625    0.0625
  band No.  band energies     occupation 
      1       4.2427      2.00000
      2       6.3697      2.00000
      3       6.5321      2.00000
      4       8.7832      2.00000
      5       9.3085      2.00000
      6      11.7718      2.00000
      7      17.7422      0.00000
      8      28.0580      0.00000
      9      32.2330      0.00000

 k-point     6 :      -0.3125    0.0625    0.0625
  band No.  band energies     occupation 
      1       4.4029      2.00000
      2       6.5339      2.00000
      3       6.7058      2.00000
      4       7.8076      2.00000
      5       9.0075      2.00000
      6       9.4961      2.00000
      7      21.4313      0.00000
      8      28.7982      0.00000
      9      32.7241      0.00000

 k-point     7 :      -0.1875    0.0625    0.0625
  band No.  band energies     occupation 
      1       4.2412      2.00000
      2       6.2891      2.00000
      3       6.8373      2.00000
      4       6.8860      2.00000
      5       8.0586      2.00000
      6       8.3911      2.00000
      7      26.4437      0.00000
      8      29.8945      0.00000
      9      33.5632      0.00000

 k-point     8 :      -0.0625    0.0625    0.0625
  band No.  band energies     occupation 
      1       3.1441      2.00000
      2       6.2703      2.00000
      3       6.6977      2.00000
      4       6.7024      2.00000
      5       7.8761      2.00000
      6       8.1581      2.00000
      7      29.1512      0.00000
      8      31.4580      0.00000
      9      33.5478      0.00000

 k-point     9 :       0.1875    0.1875    0.0625
  band No.  band energies     occupation 
      1       3.8414      2.00000
      2       5.9327      2.00000
      3       6.9841      2.00000
      4       7.0131      2.00000
      5       7.6507      2.00000
      6       8.3341      2.00000
      7      29.4960      0.00000
      8      30.4078      0.00000
      9      32.4139      0.00000

 k-point    10 :       0.3125    0.1875    0.0625
  band No.  band energies     occupation 
      1       4.7929      2.00000
      2       5.6676      2.00000
      3       6.7876      2.00000
      4       7.3957      2.00000
      5       8.0912      2.00000
      6       8.9400      2.00000
      7      26.9260      0.00000
      8      28.9764      0.00000
      9      31.6873      0.00000

 k-point    11 :       0.4375    0.1875    0.0625
  band No.  band energies     occupation 
      1       4.8324      2.00000
      2       6.2037      2.00000
      3       6.6803      2.00000
      4       7.2638      2.00000
      5       8.9975      2.00000
      6      10.9768      2.00000
      7      21.8163      0.00000
      8      28.2366      0.00000
      9      29.7697      0.00000

 k-point    12 :      -0.4375    0.1875    0.0625
  band No.  band energies     occupation 
      1       4.7247      2.00000
      2       6.0032      2.00000
      3       7.0111      2.00000
      4       7.5248      2.00000
      5       9.2429      2.00000
      6      13.7648      0.00000
      7      17.8148      0.00000
      8      27.5635      0.00000
      9      29.2404      0.00000

 k-point    13 :      -0.3125    0.1875    0.0625
  band No.  band energies     occupation 
      1       4.8725      2.00000
      2       6.1431      2.00000
      3       6.9681      2.00000
      4       7.2831      2.00000
      5       8.7789      2.00000
      6      12.1175      2.02450
      7      20.2892      0.00000
      8      27.1459      0.00000
      9      30.0003      0.00000

 k-point    14 :      -0.1875    0.1875    0.0625
  band No.  band energies     occupation 
      1       5.0795      2.00000
      2       5.9329      2.00000
      3       6.5935      2.00000
      4       7.3499      2.00000
      5       7.8807      2.00000
      6       9.7796      2.00000
      7      25.2644      0.00000
      8      27.5273      0.00000
      9      31.9240      0.00000

 k-point    15 :      -0.0625    0.1875    0.0625
  band No.  band energies     occupation 
      1       4.1243      2.00000
      2       5.9929      2.00000
      3       6.8910      2.00000
      4       7.0078      2.00000
      5       7.7457      2.00000
      6       8.4649      2.00000
      7      28.1741      0.00000
      8      29.6102      0.00000
      9      32.9545      0.00000

 k-point    16 :       0.3125    0.3125    0.0625
  band No.  band energies     occupation 
      1       4.8221      2.00000
      2       5.0946      2.00000
      3       7.6123      2.00000
      4       7.9841      2.00000
      5       8.8383      2.00000
      6       8.8401      2.00000
      7      27.3235      0.00000
      8      28.5729      0.00000
      9      28.9999      0.00000

 k-point    17 :       0.4375    0.3125    0.0625
  band No.  band energies     occupation 
      1       4.7581      2.00000
      2       4.9752      2.00000
      3       7.4840      2.00000
      4       8.4182      2.00000
      5       9.0706      2.00000
      6      11.3535      2.00000
      7      24.2439      0.00000
      8      26.3140      0.00000
      9      26.6280      0.00000

 k-point    18 :      -0.4375    0.3125    0.0625
  band No.  band energies     occupation 
      1       4.8133      2.00000
      2       5.4253      2.00000
      3       7.0727      2.00000
      4       8.0352      2.00000
      5       9.3235      2.00000
      6      15.0640      0.00000
      7      19.5178      0.00000
      8      24.3561      0.00000
      9      26.7517      0.00000

 k-point    19 :      -0.3125    0.3125    0.0625
  band No.  band energies     occupation 
      1       5.2553      2.00000
      2       5.9028      2.00000
      3       6.4853      2.00000
      4       7.7688      2.00000
      5       8.8201      2.00000
      6      15.3017      0.00000
      7      19.8437      0.00000
      8      22.8270      0.00000
      9      28.5050      0.00000

 k-point    20 :      -0.1875    0.3125    0.0625
  band No.  band energies     occupation 
      1       5.4565      2.00000
      2       6.0052      2.00000
      3       6.3420      2.00000
      4       7.5503      2.00000
      5       8.2927      2.00000
      6      12.1806      2.05131
      7      22.4394      0.00000
      8      24.8540      0.00000
      9      30.1493      0.00000

 k-point    21 :      -0.0625    0.3125    0.0625
  band No.  band energies     occupation 
      1       4.6580      2.00000
      2       6.5412      2.00000
      3       6.7822      2.00000
      4       6.9967      2.00000
      5       8.4889      2.00000
      6       9.6120      2.00000
      7      23.2464      0.00000
      8      28.9190      0.00000
      9      31.7903      0.00000

 k-point    22 :       0.4375    0.4375    0.0625
  band No.  band energies     occupation 
      1       4.2567      2.00000
      2       4.4457      2.00000
      3       8.9568      2.00000
      4       8.9669      2.00000
      5       9.3708      2.00000
      6      12.2498      2.07068
      7      23.7265      0.00000
      8      24.5429      0.00000
      9      25.3711      0.00000

 k-point    23 :      -0.4375    0.4375    0.0625
  band No.  band energies     occupation 
      1       4.2857      2.00000
      2       4.5424      2.00000
      3       8.4776      2.00000
      4       8.9283      2.00000
      5       9.5453      2.00000
      6      14.9477      0.00000
      7      21.6395      0.00000
      8      22.5857      0.00000
      9      24.5135      0.00000

 k-point    24 :      -0.3125    0.4375    0.0625
  band No.  band energies     occupation 
      1       4.7159      2.00000
      2       5.2857      2.00000
      3       7.2830      2.00000
      4       8.2965      2.00000
      5       9.2777      2.00000
      6      17.1824      0.00000
      7      18.9211      0.00000
      8      21.9552      0.00000
      9      26.3167      0.00000

 k-point    25 :      -0.1875    0.4375    0.0625
  band No.  band energies     occupation 
      1       5.0644      2.00000
      2       5.8025      2.00000
      3       6.9841      2.00000
      4       7.4060      2.00000
      5       9.0759      2.00000
      6      15.0799      0.00000
      7      18.0483      0.00000
      8      25.4166      0.00000
      9      28.6352      0.00000

 k-point    26 :      -0.0625    0.4375    0.0625
  band No.  band energies     occupation 
      1       4.4570      2.00000
      2       6.2726      2.00000
      3       6.7213      2.00000
      4       8.0632      2.00000
      5       9.1751      2.00000
      6      11.9645      2.00130
      7      18.6432      0.00000
      8      28.1552      0.00000
      9      30.8548      0.00000

 k-point    27 :      -0.4375   -0.4375    0.0625
  band No.  band energies     occupation 
      1       4.0660      2.00000
      2       4.3019      2.00000
      3       9.1650      2.00000
      4       9.3220      2.00000
      5       9.5658      2.00000
      6      13.8539      0.00000
      7      21.6662      0.00000
      8      23.8210      0.00000
      9      24.6194      0.00000

 k-point    28 :      -0.3125   -0.4375    0.0625
  band No.  band energies     occupation 
      1       4.4704      2.00000
      2       4.6849      2.00000
      3       8.0610      2.00000
      4       8.8207      2.00000
      5       9.3467      2.00000
      6      13.2615      0.00000
      7      23.0770      0.00000
      8      23.9202      0.00000
      9      25.1556      0.00000

 k-point    29 :      -0.1875   -0.4375    0.0625
  band No.  band energies     occupation 
      1       4.8861      2.00000
      2       5.7475      2.00000
      3       6.8159      2.00000
      4       7.6456      2.00000
      5       9.2647      2.00000
      6      12.8629     -0.02395
      7      20.5328      0.00000
      8      26.9668      0.00000
      9      27.6689      0.00000

 k-point    30 :      -0.3125   -0.3125    0.0625
  band No.  band energies     occupation 
      1       4.5712      2.00000
      2       4.7218      2.00000
      3       8.3498      2.00000
      4       8.5269      2.00000
      5       9.1121      2.00000
      6      10.3573      2.00000
      7      25.8028      0.00000
      8      26.4737      0.00000
      9      26.7522      0.00000

 k-point    31 :      -0.1875   -0.3125    0.0625
  band No.  band energies     occupation 
      1       4.9949      2.00000
      2       5.3389      2.00000
      3       6.9334      2.00000
      4       7.8881      2.00000
      5       8.6655      2.00000
      6       9.8287      2.00000
      7      25.5890      0.00000
      8      27.7358      0.00000
      9      29.3412      0.00000

 k-point    32 :      -0.1875   -0.1875    0.0625
  band No.  band energies     occupation 
      1       4.5843      2.00000
      2       5.5160      2.00000
      3       7.1536      2.00000
      4       7.4545      2.00000
      5       7.9199      2.00000
      6       8.5713      2.00000
      7      28.7105      0.00000
      8      30.3527      0.00000
      9      30.5880      0.00000

 k-point    33 :       0.1875    0.1875    0.1875
  band No.  band energies     occupation 
      1       3.7741      2.00000
      2       6.3153      2.00000
      3       6.7814      2.00000
      4       6.7814      2.00000
      5       8.0534      2.00000
      6       8.0534      2.00000
      7      27.8915      0.00000
      8      29.9811      0.00000
      9      34.9769      0.00000

 k-point    34 :       0.3125    0.1875    0.1875
  band No.  band energies     occupation 
      1       4.6016      2.00000
      2       6.0104      2.00000
      3       6.8453      2.00000
      4       7.0994      2.00000
      5       7.6411      2.00000
      6       8.9783      2.00000
      7      26.6733      0.00000
      8      28.6552      0.00000
      9      33.3035      0.00000

 k-point    35 :       0.4375    0.1875    0.1875
  band No.  band energies     occupation 
      1       5.2991      2.00000
      2       6.0796      2.00000
      3       6.6136      2.00000
      4       7.2742      2.00000
      5       7.9021      2.00000
      6      10.8391      2.00000
      7      23.7792      0.00000
      8      26.1300      0.00000
      9      31.5686      0.00000

 k-point    36 :      -0.4375    0.1875    0.1875
  band No.  band energies     occupation 
      1       4.9431      2.00000
      2       6.0153      2.00000
      3       7.1155      2.00000
      4       7.2768      2.00000
      5       8.8401      2.00000
      6      13.4905      0.00000
      7      19.0063      0.00000
      8      26.1483      0.00000
      9      30.4704      0.00000

 k-point    37 :      -0.3125    0.1875    0.1875
  band No.  band energies     occupation 
      1       4.7667      2.00000
      2       5.9590      2.00000
      3       7.1623      2.00000
      4       7.2092      2.00000
      5       9.3554      2.00000
      6      13.3362      0.00000
      7      18.8322      0.00000
      8      27.2081      0.00000
      9      29.7448      0.00000

 k-point    38 :      -0.1875    0.1875    0.1875
  band No.  band energies     occupation 
      1       4.8546      2.00000
      2       5.8023      2.00000
      3       6.7793      2.00000
      4       7.4419      2.00000
      5       9.1144      2.00000
      6      10.1064      2.00000
      7      23.5993      0.00000
      8      28.9067      0.00000
      9      29.5263      0.00000

 k-point    39 :       0.3125    0.3125    0.1875
  band No.  band energies     occupation 
      1       4.6911      2.00000
      2       6.1446      2.00000
      3       6.6828      2.00000
      4       7.1060      2.00000
      5       8.7558      2.00000
      6       8.7710      2.00000
      7      25.0127      0.00000
      8      29.7249      0.00000
      9      31.5241      0.00000

 k-point    40 :       0.4375    0.3125    0.1875
  band No.  band energies     occupation 
      1       5.2548      2.00000
      2       5.8107      2.00000
      3       6.3393      2.00000
      4       7.7788      2.00000
      5       8.4052      2.00000
      6      10.9499      2.00000
      7      23.9225      0.00000
      8      26.2861      0.00000
      9      29.6315      0.00000

 k-point    41 :      -0.4375    0.3125    0.1875
  band No.  band energies     occupation 
      1       5.5592      2.00000
      2       5.6742      2.00000
      3       6.2055      2.00000
      4       7.9038      2.00000
      5       8.7848      2.00000
      6      13.8998      0.00000
      7      21.2385      0.00000
      8      23.8137      0.00000
      9      27.6000      0.00000

 k-point    42 :      -0.3125    0.3125    0.1875
  band No.  band energies     occupation 
      1       5.2259      2.00000
      2       5.5950      2.00000
      3       6.6201      2.00000
      4       7.7910      2.00000
      5       9.2129      2.00000
      6      16.1100      0.00000
      7      18.2585      0.00000
      8      24.9572      0.00000
      9      25.8643      0.00000

 k-point    43 :      -0.1875    0.3125    0.1875
  band No.  band energies     occupation 
      1       5.1064      2.00000
      2       5.4172      2.00000
      3       6.6441      2.00000
      4       8.2284      2.00000
      5       8.8799      2.00000
      6      12.5917      0.24746
      7      22.6788      0.00000
      8      25.0984      0.00000
      9      26.9623      0.00000

 k-point    44 :       0.4375    0.4375    0.1875
  band No.  band energies     occupation 
      1       4.7431      2.00000
      2       5.3455      2.00000
      3       7.2515      2.00000
      4       7.8633      2.00000
      5       9.3512      2.00000
      6      11.9129      2.00035
      7      22.2638      0.00000
      8      26.7156      0.00000
      9      27.8597      0.00000

 k-point    45 :      -0.4375    0.4375    0.1875
  band No.  band energies     occupation 
      1       4.8569      2.00000
      2       5.1194      2.00000
      3       7.0875      2.00000
      4       8.4767      2.00000
      5       9.2723      2.00000
      6      14.5952      0.00000
      7      21.6684      0.00000
      8      23.9883      0.00000
      9      24.3916      0.00000

 k-point    46 :      -0.3125    0.4375    0.1875
  band No.  band energies     occupation 
      1       5.0445      2.00000
      2       5.6201      2.00000
      3       6.4485      2.00000
      4       8.0944      2.00000
      5       9.5360      2.00000
      6      18.1272      0.00000
      7      19.6944      0.00000
      8      21.9933      0.00000
      9      22.9872      0.00000

 k-point    47 :      -0.1875    0.4375    0.1875
  band No.  band energies     occupation 
      1       5.2600      2.00000
      2       5.6313      2.00000
      3       6.3065      2.00000
      4       8.0789      2.00000
      5       9.2395      2.00000
      6      15.9781      0.00000
      7      20.2639      0.00000
      8      23.0761      0.00000
      9      24.8032      0.00000

 k-point    48 :      -0.4375   -0.4375    0.1875
  band No.  band energies     occupation 
      1       4.4109      2.00000
      2       4.8373      2.00000
      3       8.0714      2.00000
      4       8.6475      2.00000
      5       9.3856      2.00000
      6      15.8368      0.00000
      7      20.5505      0.00000
      8      21.8238      0.00000
      9      26.0526      0.00000

 k-point    49 :      -0.3125   -0.4375    0.1875
  band No.  band energies     occupation 
      1       4.6713      2.00000
      2       4.9961      2.00000
      3       7.4288      2.00000
      4       8.4879      2.00000
      5       9.5381      2.00000
      6      16.4882      0.00000
      7      21.0562      0.00000
      8      21.8793      0.00000
      9      23.7463      0.00000

 k-point    50 :      -0.3125   -0.3125    0.1875
  band No.  band energies     occupation 
      1       4.5504      2.00000
      2       5.0023      2.00000
      3       7.7547      2.00000
      4       8.3063      2.00000
      5       9.4338      2.00000
      6      13.9861      0.00000
      7      21.1770      0.00000
      8      24.0327      0.00000
      9      26.6711      0.00000

 k-point    51 :       0.3125    0.3125    0.3125
  band No.  band energies     occupation 
      1       4.3520      2.00000
      2       6.6879      2.00000
      3       6.6879      2.00000
      4       7.6942      2.00000
      5       8.5854      2.00000
      6       8.5854      2.00000
      7      23.0145      0.00000
      8      29.1638      0.00000
      9      34.8565      0.00000

 k-point    52 :       0.4375    0.3125    0.3125
  band No.  band energies     occupation 
      1       4.7209      2.00000
      2       6.4035      2.00000
      3       6.8788      2.00000
      4       7.3301      2.00000
      5       8.4099      2.00000
      6      10.6838      2.00000
      7      21.6768      0.00000
      8      28.0081      0.00000
      9      31.1937      0.00000

 k-point    53 :      -0.4375    0.3125    0.3125
  band No.  band energies     occupation 
      1       5.3824      2.00000
      2       6.0208      2.00000
      3       6.5425      2.00000
      4       7.4988      2.00000
      5       8.4567      2.00000
      6      13.5952      0.00000
      7      21.0923      0.00000
      8      23.6598      0.00000
      9      30.8904      0.00000

 k-point    54 :      -0.3125    0.3125    0.3125
  band No.  band energies     occupation 
      1       4.9067      2.00000
      2       5.6874      2.00000
      3       6.9324      2.00000
      4       7.9952      2.00000
      5       8.9913      2.00000
      6      16.8741      0.00000
      7      18.5076      0.00000
      8      22.2382      0.00000
      9      28.5517      0.00000

 k-point    55 :       0.4375    0.4375    0.3125
  band No.  band energies     occupation 
      1       4.5644      2.00000
      2       6.2718      2.00000
      3       6.8868      2.00000
      4       7.4435      2.00000
      5       9.2828      2.00000
      6      11.2534      2.00000
      7      20.0245      0.00000
      8      28.4756      0.00000
      9      31.0064      0.00000

 k-point    56 :      -0.4375    0.4375    0.3125
  band No.  band energies     occupation 
      1       5.0856      2.00000
      2       5.8001      2.00000
      3       6.8294      2.00000
      4       7.4740      2.00000
      5       9.0893      2.00000
      6      13.9702      0.00000
      7      19.1055      0.00000
      8      26.3965      0.00000
      9      27.7222      0.00000

 k-point    57 :      -0.3125    0.4375    0.3125
  band No.  band energies     occupation 
      1       5.1441      2.00000
      2       5.6942      2.00000
      3       6.4690      2.00000
      4       7.9971      2.00000
      5       9.2383      2.00000
      6      17.3392      0.00000
      7      18.8114      0.00000
      8      22.3397      0.00000
      9      25.5947      0.00000

 k-point    58 :      -0.4375   -0.4375    0.3125
  band No.  band energies     occupation 
      1       4.8963      2.00000
      2       5.7411      2.00000
      3       7.0001      2.00000
      4       7.6214      2.00000
      5       9.2234      2.00000
      6      15.5702      0.00000
      7      18.0180      0.00000
      8      24.7375      0.00000
      9      28.9380      0.00000

 k-point    59 :       0.4375    0.4375    0.4375
  band No.  band energies     occupation 
      1       4.1806      2.00000
      2       6.4751      2.00000
      3       6.4751      2.00000
      4       9.2045      2.00000
      5       9.2045      2.00000
      6      10.5488      2.00000
      7      18.5410      0.00000
      8      28.1245      0.00000
      9      33.0788      0.00000

 k-point    60 :      -0.4375    0.4375    0.4375
  band No.  band energies     occupation 
      1       4.5108      2.00000
      2       6.1888      2.00000
      3       6.7574      2.00000
      4       8.0559      2.00000
      5       9.1713      2.00000
      6      12.9474     -0.00562
      7      17.7857      0.00000
      8      27.8381      0.00000
      9      30.6872      0.00000


--------------------------------------------------------------------------------------------------------


 soft charge-density along one line, spin component           1
         0         1         2         3         4         5         6         7         8         9
x     5.8024    0.0000    0.7079    0.0000   -0.2581    0.0000    0.0117    0.0000    0.0094    0.0000
x     0.0001    0.0000    0.0000    0.0000
y     5.8024    0.0000    0.7079    0.0000   -0.2581    0.0000    0.0117    0.0000    0.0094    0.0000
y     0.0001    0.0000    0.0000    0.0000
z     5.8024    0.0000    0.7079    0.0000   -0.2581    0.0000    0.0117    0.0000    0.0094    0.0000
z     0.0001    0.0000    0.0000    0.0000
 total charge-density along one line
x    11.0000    0.0000    4.0692    0.0000    0.4820    0.0000   -0.0054    0.0000    0.0119    0.0000
x    -0.0010    0.0000    0.0005    0.0000   -0.0003    0.0000    0.0001    0.0000   -0.0001    0.0000
x     0.0001    0.0000    0.0000    0.0000    0.0000    0.0000
y    11.0000    0.0000    4.0692    0.0000    0.4820    0.0000   -0.0054    0.0000    0.0119    0.0000
y    -0.0010    0.0000    0.0005    0.0000   -0.0003    0.0000    0.0001    0.0000   -0.0001    0.0000
y     0.0001    0.0000    0.0000    0.0000    0.0000    0.0000
z    11.0000    0.0000    4.0692    0.0000    0.4820    0.0000   -0.0054    0.0000    0.0119    0.0000
z    -0.0010    0.0000    0.0005    0.0000   -0.0003    0.0000    0.0001    0.0000   -0.0001    0.0000
z     0.0001    0.0000    0.0000    0.0000    0.0000    0.0000
 
 pseudopotential strength for first ion, spin component:           1
 -2.284   0.000   0.000  -0.007   0.000  -2.588   0.000   0.000
  0.000  -2.279   0.000   0.000  -0.007   0.000  -2.583   0.000
  0.000   0.000  -2.289   0.000   0.000   0.000   0.000  -2.593
 -0.007   0.000   0.000  -2.279   0.000  -0.007   0.000   0.000
  0.000  -0.007   0.000   0.000  -2.284   0.000  -0.007   0.000
 -2.588   0.000   0.000  -0.007   0.000  -2.855   0.000   0.000
  0.000  -2.583   0.000   0.000  -0.007   0.000  -2.850   0.000
  0.000   0.000  -2.593   0.000   0.000   0.000   0.000  -2.860
 -0.007   0.000   0.000  -2.583   0.000  -0.007   0.000   0.000
  0.000  -0.007   0.000   0.000  -2.588   0.000  -0.007   0.000
  0.000   0.000   0.000   0.000   0.000   0.000   0.000   0.000
  0.000   0.000   0.000   0.000   0.000   0.000   0.000   0.000
  0.000   0.000   0.000   0.000   0.000   0.000   0.000   0.000
  0.000   0.000   0.000   0.000   0.000   0.000   0.000   0.000
  0.000   0.000   0.000   0.000   0.000   0.000   0.000   0.000
  0.000   0.000   0.000   0.000   0.000   0.000   0.000   0.000
  0.000   0.000   0.000   0.000   0.000   0.000   0.000   0.000
  0.000   0.000   0.000   0.000   0.000   0.000   0.000   0.000
 total augmentation occupancy for first ion, spin component:           1
  4.862   0.000   0.000   0.059   0.000  -3.022   0.000   0.000  -0.154   0.000   0.000   0.000   0.000   0.000   0.000   0.000
  0.000   4.820   0.000   0.000   0.059   0.000  -2.913   0.000   0.000  -0.154   0.000   0.000   0.000   0.000   0.000   0.000
  0.000   0.000   4.904   0.000   0.000   0.000   0.000  -3.131   0.000   0.000   0.000   0.000   0.000   0.000   0.000   0.000
  0.059   0.000   0.000   4.820   0.000  -0.154   0.000   0.000  -2.913   0.000   0.000   0.000   0.000   0.000   0.000   0.000
  0.000   0.059   0.000   0.000   4.862   0.000  -0.154   0.000   0.000  -3.022   0.000   0.000   0.000   0.000   0.000   0.000
 -3.022   0.000   0.000  -0.154   0.000   3.133   0.000   0.000   0.237   0.000   0.000   0.000   0.000   0.000   0.000   0.000
  0.000  -2.913   0.000   0.000  -0.154   0.000   2.965   0.000   0.000   0.237   0.000   0.000   0.000   0.000   0.000   0.000
  0.000   0.000  -3.131   0.000   0.000   0.000   0.000   3.300   0.000   0.000   0.000   0.000   0.000   0.000   0.000   0.000
 -0.154   0.000   0.000  -2.913   0.000   0.237   0.000   0.000   2.965   0.000   0.000   0.000   0.000   0.000   0.000   0.000
  0.000  -0.154   0.000   0.000  -3.022   0.000   0.237   0.000   0.000   3.133   0.000   0.000   0.000   0.000   0.000   0.000
  0.000   0.000   0.000   0.000   0.000   0.000   0.000   0.000   0.000   0.000   3.060  -0.667   0.000   0.000   0.000   0.000
  0.000   0.000   0.000   0.000   0.000   0.000   0.000   0.000   0.000   0.000  -0.667   0.175   0.000   0.000   0.000   0.000
  0.000   0.000   0.000   0.000   0.000   0.000   0.000   0.000   0.000   0.000   0.000   0.000   0.294   0.000   0.000  -0.018
  0.000   0.000   0.000   0.000   0.000   0.000   0.000   0.000   0.000   0.000   0.000   0.000   0.000   0.294   0.000   0.000
  0.000   0.000   0.000   0.000   0.000   0.000   0.000   0.000   0.000   0.000   0.000   0.000   0.000   0.000   0.294   0.000
  0.000   0.000   0.000   0.000   0.000   0.000   0.000   0.000   0.000   0.000   0.000   0.000  -0.018   0.000   0.000   0.001
  0.000   0.000   0.000   0.000   0.000   0.000   0.000   0.000   0.000   0.000   0.000   0.000   0.000  -0.018   0.000   0.000
  0.000   0.000   0.000   0.000   0.000   0.000   0.000   0.000   0.000   0.000   0.000   0.000   0.000   0.000  -0.018   0.000


------------------------ aborting loop because EDIFF is reached ----------------------------------------


    CHARGE:  cpu time    0.03: real time    0.03
    FORLOC:  cpu time    0.00: real time    0.00
    FORNL :  cpu time    0.06: real time    0.06
    STRESS:  cpu time    0.21: real time    0.21
    FORCOR:  cpu time    0.01: real time    0.02
    FORHAR:  cpu time    0.00: real time    0.00
    MIXING:  cpu time    0.00: real time    0.00
    OFIELD:  cpu time    0.00: real time    0.00

  FORCE on cell =-STRESS in cart. coord.  units (eV):
  Direction    XX          YY          ZZ          XY          YZ          ZX
  --------------------------------------------------------------------------------------
  Alpha Z    63.86174    63.86174    63.86174
  Ewald    -353.83871  -353.83871  -353.83871     0.00000     0.00000     0.00000
  Hartree    50.47315    50.47315    50.47315     0.00000     0.00000     0.00000
  E(xc)     -59.00538   -59.00539   -59.00539     0.00001     0.00000     0.00001
  Local      74.32616    74.32586    74.32579     0.00026     0.00010     0.00019
  n-local    -1.41449    -1.08743     0.55315    -0.59092    -0.48966     1.99111
  augment    91.61689    91.61708    91.61713    -0.00017    -0.00007    -0.00012
  Kinetic   138.50346   138.21558   137.69937     0.11441    -0.23810    -0.68406
  Fock        0.00000     0.00000     0.00000     0.00000     0.00000     0.00000
  -------------------------------------------------------------------------------------
  Total       4.92364     4.92364     4.92364     0.00000     0.00000     0.00000
  in kB     592.27505   592.27505   592.27505     0.00000     0.00000     0.00000
  external pressure =      592.28 kB  Pullay stress =        0.00 kB


 VOLUME and BASIS-vectors are now :
 -----------------------------------------------------------------------------
  energy-cutoff  :      350.00
  volume of cell :       13.32
      direct lattice vectors                 reciprocal lattice vectors
     2.660701396  0.000000000  0.000000000     0.375840747 -0.216991756 -0.153436342
     1.330350698  2.304235001  0.000000000     0.000000000  0.433983513 -0.153436342
     1.330350698  0.768078334  2.172453593     0.000000000  0.000000000  0.460309027

  length of vectors
     2.660701396  2.660701396  2.660701396     0.460309027  0.460309027  0.460309027


 FORCES acting on ions
    electron-ion (+dipol)            ewald-force                    non-local-force                 convergence-correction
 -----------------------------------------------------------------------------------------------
   -.865E-13 -.490E-14 -.114E-13   0.201E-14 0.825E-15 -.681E-16   0.513E-22 0.356E-22 0.000E+00   -.347E-13 -.496E-13 -.387E-13
 -----------------------------------------------------------------------------------------------
   -.865E-13 -.490E-14 -.114E-13   0.201E-14 0.825E-15 -.681E-16   0.513E-22 0.356E-22 0.000E+00   -.347E-13 -.496E-13 -.387E-13
 
 
 POSITION                                       TOTAL-FORCE (eV/Angst)
 -----------------------------------------------------------------------------------
      0.00000      0.00000      0.00000         0.000000      0.000000      0.000000
 -----------------------------------------------------------------------------------
    total drift:                                0.000000      0.000000      0.000000


--------------------------------------------------------------------------------------------------------



  FREE ENERGIE OF THE ION-ELECTRON SYSTEM (eV)
  ---------------------------------------------------
  free  energy   TOTEN  =        -2.09930483 eV

  energy  without entropy=       -2.10011387  energy(sigma->0) =       -2.09957451
 


--------------------------------------------------------------------------------------------------------


    POTLOK:  cpu time    0.02: real time    0.03


--------------------------------------------------------------------------------------------------------


 stress matrix after NEB project (eV)
      4.92364      0.00000      0.00000
      0.00000      4.92364      0.00000
      0.00000      0.00000      4.92364
  FORCES: max atom, RMS     0.000000    0.000000
  FORCE total and by dimension    0.000000    0.000000
  Stress total and by dimension    8.527994    4.923640


--------------------------------------------------------------------------------------------------------


  
 reached required accuracy - stopping structural energy minimisation
 writing wavefunctions
     LOOP+:  cpu time    3.97: real time    4.35
    4ORBIT:  cpu time    0.00: real time    0.00

 total amount of memory used by VASP on root node    34452. kBytes
========================================================================

   base      :      30000. kBytes
   nonl-proj :       1757. kBytes
   grid      :        771. kBytes
   one-center:         15. kBytes
   wavefun   :       1909. kBytes
 
  
  
 General timing and accounting informations for this job:
 ========================================================
  
                  Total CPU time used (sec):        4.615
                            User time (sec):        4.168
                          System time (sec):        0.447
                         Elapsed time (sec):        5.392
  
                   Maximum memory used (kb):           0.
                   Average memory used (kb):           0.
  
                          Minor page faults:         5043
                          Major page faults:            0
                 Voluntary context switches:        19327
