<?xml version="1.0" encoding="ISO-8859-1"?>
<modeling>
 <generator>
  <i name="program" type="string">vasp </i>
  <i name="version" type="string">5.3.5  </i>
  <i name="subversion" type="string">31Mar14 (build Jan 09 2015 16:57:47) complex                          serial </i>
  <i name="platform" type="string">LinuxIFC </i>
  <i name="date" type="string">2015 03 24 </i>
  <i name="time" type="string">14:26:00 </i>
 </generator>
 <incar>
  <i type="string" name="PREC">normal</i>
  <i type="int" name="IBRION">     2</i>
  <i type="int" name="NSW">    30</i>
  <i type="int" name="ISIF">     2</i>
  <i name="ENCUT">    350.00000000</i>
 </incar>
 <kpoints>
  <generation param="Monkhorst-Pack">
   <v type="int" name="divisions">       8        8        8 </v>
   <v name="usershift">      0.00000000       0.00000000       0.00000000 </v>
   <v name="genvec1">      0.12500000       0.00000000       0.00000000 </v>
   <v name="genvec2">      0.00000000       0.12500000       0.00000000 </v>
   <v name="genvec3">      0.00000000       0.00000000       0.12500000 </v>
   <v name="shift">      0.50000000       0.50000000       0.50000000 </v>
  </generation>
  <varray name="kpointlist" >
   <v>       0.06250000       0.06250000       0.06250000 </v>
   <v>       0.18750000       0.06250000       0.06250000 </v>
   <v>       0.31250000       0.06250000       0.06250000 </v>
   <v>       0.43750000       0.06250000       0.06250000 </v>
   <v>      -0.43750000       0.06250000       0.06250000 </v>
   <v>      -0.31250000       0.06250000       0.06250000 </v>
   <v>      -0.18750000       0.06250000       0.06250000 </v>
   <v>      -0.06250000       0.06250000       0.06250000 </v>
   <v>       0.18750000       0.18750000       0.06250000 </v>
   <v>       0.31250000       0.18750000       0.06250000 </v>
   <v>       0.43750000       0.18750000       0.06250000 </v>
   <v>      -0.43750000       0.18750000       0.06250000 </v>
   <v>      -0.31250000       0.18750000       0.06250000 </v>
   <v>      -0.18750000       0.18750000       0.06250000 </v>
   <v>      -0.06250000       0.18750000       0.06250000 </v>
   <v>       0.31250000       0.31250000       0.06250000 </v>
   <v>       0.43750000       0.31250000       0.06250000 </v>
   <v>      -0.43750000       0.31250000       0.06250000 </v>
   <v>      -0.31250000       0.31250000       0.06250000 </v>
   <v>      -0.18750000       0.31250000       0.06250000 </v>
   <v>      -0.06250000       0.31250000       0.06250000 </v>
   <v>       0.43750000       0.43750000       0.06250000 </v>
   <v>      -0.43750000       0.43750000       0.06250000 </v>
   <v>      -0.31250000       0.43750000       0.06250000 </v>
   <v>      -0.18750000       0.43750000       0.06250000 </v>
   <v>      -0.06250000       0.43750000       0.06250000 </v>
   <v>      -0.43750000      -0.43750000       0.06250000 </v>
   <v>      -0.31250000      -0.43750000       0.06250000 </v>
   <v>      -0.18750000      -0.43750000       0.06250000 </v>
   <v>      -0.31250000      -0.31250000       0.06250000 </v>
   <v>      -0.18750000      -0.31250000       0.06250000 </v>
   <v>      -0.18750000      -0.18750000       0.06250000 </v>
   <v>       0.18750000       0.18750000       0.18750000 </v>
   <v>       0.31250000       0.18750000       0.18750000 </v>
   <v>       0.43750000       0.18750000       0.18750000 </v>
   <v>      -0.43750000       0.18750000       0.18750000 </v>
   <v>      -0.31250000       0.18750000       0.18750000 </v>
   <v>      -0.18750000       0.18750000       0.18750000 </v>
   <v>       0.31250000       0.31250000       0.18750000 </v>
   <v>       0.43750000       0.31250000       0.18750000 </v>
   <v>      -0.43750000       0.31250000       0.18750000 </v>
   <v>      -0.31250000       0.31250000       0.18750000 </v>
   <v>      -0.18750000       0.31250000       0.18750000 </v>
   <v>       0.43750000       0.43750000       0.18750000 </v>
   <v>      -0.43750000       0.43750000       0.18750000 </v>
   <v>      -0.31250000       0.43750000       0.18750000 </v>
   <v>      -0.18750000       0.43750000       0.18750000 </v>
   <v>      -0.43750000      -0.43750000       0.18750000 </v>
   <v>      -0.31250000      -0.43750000       0.18750000 </v>
   <v>      -0.31250000      -0.31250000       0.18750000 </v>
   <v>       0.31250000       0.31250000       0.31250000 </v>
   <v>       0.43750000       0.31250000       0.31250000 </v>
   <v>      -0.43750000       0.31250000       0.31250000 </v>
   <v>      -0.31250000       0.31250000       0.31250000 </v>
   <v>       0.43750000       0.43750000       0.31250000 </v>
   <v>      -0.43750000       0.43750000       0.31250000 </v>
   <v>      -0.31250000       0.43750000       0.31250000 </v>
   <v>      -0.43750000      -0.43750000       0.31250000 </v>
   <v>       0.43750000       0.43750000       0.43750000 </v>
   <v>      -0.43750000       0.43750000       0.43750000 </v>
  </varray>
  <varray name="weights" >
   <v>       0.00390625 </v>
   <v>       0.01171875 </v>
   <v>       0.01171875 </v>
   <v>       0.01171875 </v>
   <v>       0.01171875 </v>
   <v>       0.01171875 </v>
   <v>       0.01171875 </v>
   <v>       0.01171875 </v>
   <v>       0.01171875 </v>
   <v>       0.02343750 </v>
   <v>       0.02343750 </v>
   <v>       0.02343750 </v>
   <v>       0.02343750 </v>
   <v>       0.02343750 </v>
   <v>       0.02343750 </v>
   <v>       0.01171875 </v>
   <v>       0.02343750 </v>
   <v>       0.02343750 </v>
   <v>       0.02343750 </v>
   <v>       0.02343750 </v>
   <v>       0.02343750 </v>
   <v>       0.01171875 </v>
   <v>       0.02343750 </v>
   <v>       0.02343750 </v>
   <v>       0.02343750 </v>
   <v>       0.02343750 </v>
   <v>       0.01171875 </v>
   <v>       0.02343750 </v>
   <v>       0.02343750 </v>
   <v>       0.01171875 </v>
   <v>       0.02343750 </v>
   <v>       0.01171875 </v>
   <v>       0.00390625 </v>
   <v>       0.01171875 </v>
   <v>       0.01171875 </v>
   <v>       0.01171875 </v>
   <v>       0.01171875 </v>
   <v>       0.01171875 </v>
   <v>       0.01171875 </v>
   <v>       0.02343750 </v>
   <v>       0.02343750 </v>
   <v>       0.02343750 </v>
   <v>       0.02343750 </v>
   <v>       0.01171875 </v>
   <v>       0.02343750 </v>
   <v>       0.02343750 </v>
   <v>       0.02343750 </v>
   <v>       0.01171875 </v>
   <v>       0.02343750 </v>
   <v>       0.01171875 </v>
   <v>       0.00390625 </v>
   <v>       0.01171875 </v>
   <v>       0.01171875 </v>
   <v>       0.01171875 </v>
   <v>       0.01171875 </v>
   <v>       0.02343750 </v>
   <v>       0.02343750 </v>
   <v>       0.01171875 </v>
   <v>       0.00390625 </v>
   <v>       0.01171875 </v>
  </varray>
 </kpoints>
 <parameters>
  <separator name="general" >
   <i type="string" name="SYSTEM">unknown system</i>
   <i type="logical" name="LCOMPAT"> F  </i>
  </separator>
  <separator name="electronic" >
   <i type="string" name="PREC">normal</i>
   <i name="ENMAX">    350.00000000</i>
   <i name="ENAUG">    412.49600000</i>
   <i name="EDIFF">      0.00010000</i>
   <i type="int" name="IALGO">    38</i>
   <i type="int" name="IWAVPR">    11</i>
   <i type="int" name="NBANDS">     9</i>
   <i name="NELECT">     11.00000000</i>
   <i type="int" name="TURBO">     0</i>
   <i type="int" name="IRESTART">     0</i>
   <i type="int" name="NREBOOT">     0</i>
   <i type="int" name="NMIN">     0</i>
   <i name="EREF">      0.00000000</i>
   <separator name="electronic smearing" >
    <i type="int" name="ISMEAR">     1</i>
    <i name="SIGMA">      0.20000000</i>
    <i name="KSPACING">      0.50000000</i>
    <i type="logical" name="KGAMMA"> T  </i>
   </separator>
   <separator name="electronic projectors" >
    <i type="logical" name="LREAL"> F  </i>
    <v name="ROPT">      0.00000000</v>
    <i type="int" name="LMAXPAW">  -100</i>
    <i type="int" name="LMAXMIX">     2</i>
    <i type="logical" name="NLSPLINE"> F  </i>
   </separator>
   <separator name="electronic startup" >
    <i type="int" name="ISTART">     0</i>
    <i type="int" name="ICHARG">     2</i>
    <i type="int" name="INIWAV">     1</i>
   </separator>
   <separator name="electronic spin" >
    <i type="int" name="ISPIN">     1</i>
    <i type="logical" name="LNONCOLLINEAR"> F  </i>
    <v name="MAGMOM">      1.00000000</v>
    <i name="NUPDOWN">     -1.00000000</i>
    <i type="logical" name="LSORBIT"> F  </i>
    <v name="SAXIS">      0.00000000      0.00000000      1.00000000</v>
    <i type="logical" name="LSPIRAL"> F  </i>
    <v name="QSPIRAL">      0.00000000      0.00000000      0.00000000</v>
    <i type="logical" name="LZEROZ"> F  </i>
   </separator>
   <separator name="electronic exchange-correlation" >
    <i type="logical" name="LASPH"> F  </i>
    <i type="logical" name="LMETAGGA"> F  </i>
   </separator>
   <separator name="electronic convergence" >
    <i type="int" name="NELM">    60</i>
    <i type="int" name="NELMDL">    -5</i>
    <i type="int" name="NELMIN">     2</i>
    <i name="ENINI">    350.00000000</i>
    <separator name="electronic convergence detail" >
     <i type="logical" name="LDIAG"> T  </i>
     <i type="logical" name="LSUBROT"> F  </i>
     <i name="WEIMIN">      0.00100000</i>
     <i name="EBREAK">      0.00000278</i>
     <i name="DEPER">      0.30000000</i>
     <i type="int" name="NRMM">     4</i>
     <i name="TIME">      0.40000000</i>
    </separator>
   </separator>
   <separator name="electronic mixer" >
    <i name="AMIX">      0.40000000</i>
    <i name="BMIX">      1.00000000</i>
    <i name="AMIN">      0.10000000</i>
    <i name="AMIX_MAG">      1.60000000</i>
    <i name="BMIX_MAG">      1.00000000</i>
    <separator name="electronic mixer details" >
     <i type="int" name="IMIX">     4</i>
     <i type="int" name="MAXMIX">   -45</i>
     <i name="WC">    100.00000000</i>
     <i type="int" name="INIMIX">     1</i>
     <i type="int" name="MIXPRE">     1</i>
     <i type="int" name="MREMOVE">     5</i>
    </separator>
   </separator>
   <separator name="electronic dipolcorrection" >
    <i type="logical" name="LDIPOL"> F  </i>
    <i type="logical" name="LMONO"> F  </i>
    <i type="int" name="IDIPOL">     0</i>
    <i name="EPSILON">      1.00000000</i>
    <v name="DIPOL">   -100.00000000   -100.00000000   -100.00000000</v>
    <i name="EFIELD">      0.00000000</i>
   </separator>
  </separator>
  <separator name="grids" >
   <i type="int" name="NGX">    12</i>
   <i type="int" name="NGY">    12</i>
   <i type="int" name="NGZ">    12</i>
   <i type="int" name="NGXF">    24</i>
   <i type="int" name="NGYF">    24</i>
   <i type="int" name="NGZF">    24</i>
   <i type="logical" name="ADDGRID"> F  </i>
  </separator>
  <separator name="ionic" >
   <i type="int" name="NSW">    30</i>
   <i type="int" name="IBRION">     2</i>
   <i type="int" name="ISIF">     2</i>
   <i name="PSTRESS">      0.00000000</i>
   <i name="EDIFFG">      0.00100000</i>
   <i type="int" name="NFREE">     1</i>
   <i name="POTIM">      0.50000000</i>
   <i name="SMASS">     -3.00000000</i>
   <i name="SCALEE">      1.00000000</i>
  </separator>
  <separator name="ionic md" >
   <i name="TEBEG">      0.00010000</i>
   <i name="TEEND">      0.00010000</i>
   <i type="int" name="NBLOCK">     1</i>
   <i type="int" name="KBLOCK">    30</i>
   <i type="int" name="NPACO">   256</i>
   <i name="APACO">     16.00000000</i>
  </separator>
  <separator name="symmetry" >
   <i type="int" name="ISYM">     2</i>
   <i name="SYMPREC">      0.00001000</i>
  </separator>
  <separator name="dos" >
   <i type="logical" name="LORBIT"> F  </i>
   <v name="RWIGS">     -1.00000000</v>
   <i type="int" name="NEDOS">   301</i>
   <i name="EMIN">     10.00000000</i>
   <i name="EMAX">    -10.00000000</i>
   <i name="EFERMI">      0.00000000</i>
  </separator>
  <separator name="writing" >
   <i type="int" name="NWRITE">     2</i>
   <i type="logical" name="LWAVE"> T  </i>
   <i type="logical" name="LCHARG"> T  </i>
   <i type="logical" name="LPARD"> F  </i>
   <i type="logical" name="LVTOT"> F  </i>
   <i type="logical" name="LVHAR"> F  </i>
   <i type="logical" name="LELF"> F  </i>
   <i type="logical" name="LOPTICS"> F  </i>
   <v name="STM">      0.00000000      0.00000000      0.00000000      0.00000000      0.00000000      0.00000000      0.00000000</v>
  </separator>
  <separator name="performance" >
   <i type="int" name="NPAR">     1</i>
   <i type="int" name="NSIM">     4</i>
   <i type="int" name="NBLK">    -1</i>
   <i type="logical" name="LPLANE"> T  </i>
   <i type="logical" name="LSCALAPACK"> F  </i>
   <i type="logical" name="LSCAAWARE"> F  </i>
   <i type="logical" name="LSCALU"> F  </i>
   <i type="logical" name="LASYNC"> F  </i>
   <i type="logical" name="LORBITALREAL"> F  </i>
  </separator>
  <separator name="miscellaneous" >
   <i type="int" name="IDIOT">     3</i>
   <i type="logical" name="LMUSIC"> F  </i>
   <v name="POMASS">    107.86800000</v>
   <v name="DARWINR">      0.00000000</v>
   <v name="DARWINV">      1.00000000</v>
   <i type="logical" name="LCORR"> T  </i>
  </separator>
  <i type="logical" name="GGA_COMPAT"> T  </i>
  <i type="logical" name="LBERRY"> F  </i>
  <i type="int" name="ICORELEVEL">     0</i>
  <i type="logical" name="LDAU"> F  </i>
  <i type="int" name="I_CONSTRAINED_M">     0</i>
  <separator name="electronic exchange-correlation" >
   <i type="string" name="GGA">--</i>
   <i type="int" name="VOSKOWN">     0</i>
   <i type="logical" name="LHFCALC"> F  </i>
   <i type="string" name="PRECFOCK"></i>
   <i type="logical" name="LSYMGRAD"> F  </i>
   <i type="logical" name="LHFONE"> F  </i>
   <i type="logical" name="LRHFCALC"> F  </i>
   <i type="logical" name="LTHOMAS"> F  </i>
   <i type="logical" name="LMODELHF"> F  </i>
   <i name="ENCUT4O">     -1.00000000</i>
   <i type="int" name="EXXOEP">     0</i>
   <i type="int" name="FOURORBIT">     0</i>
   <i name="AEXX">      0.00000000</i>
   <i name="HFALPHA">      0.00000000</i>
   <i name="MCALPHA">      0.00000000</i>
   <i name="ALDAX">      1.00000000</i>
   <i name="AGGAX">      1.00000000</i>
   <i name="ALDAC">      1.00000000</i>
   <i name="AGGAC">      1.00000000</i>
   <i type="int" name="NKREDX">     1</i>
   <i type="int" name="NKREDY">     1</i>
   <i type="int" name="NKREDZ">     1</i>
   <i type="logical" name="SHIFTRED"> F  </i>
   <i type="logical" name="ODDONLY"> F  </i>
   <i type="logical" name="EVENONLY"> F  </i>
   <i type="int" name="LMAXFOCK">     0</i>
   <i type="int" name="NMAXFOCKAE">     0</i>
   <i type="logical" name="LFOCKAEDFT"> F  </i>
   <i name="HFSCREEN">      0.00000000</i>
   <i name="HFSCREENC">      0.00000000</i>
   <i type="int" name="NBANDSGWLOW">     0</i>
  </separator>
  <separator name="vdW DFT" >
   <i type="logical" name="LUSE_VDW"> F  </i>
   <i name="Zab_VDW">     -0.84910000</i>
   <i name="PARAM1">      0.12340000</i>
   <i name="PARAM2">      1.00000000</i>
   <i name="PARAM3">      0.00000000</i>
  </separator>
  <separator name="model GW" >
   <i type="int" name="MODEL_GW">     0</i>
   <i name="MODEL_EPS0">      7.99143304</i>
   <i name="MODEL_ALPHA">      1.00000000</i>
  </separator>
  <separator name="linear response parameters" >
   <i type="logical" name="LEPSILON"> F  </i>
   <i type="logical" name="LRPA"> F  </i>
   <i type="logical" name="LNABLA"> F  </i>
   <i type="logical" name="LVEL"> F  </i>
   <i type="int" name="KINTER">     0</i>
   <i name="CSHIFT">      0.10000000</i>
   <i name="OMEGAMAX">     -1.00000000</i>
   <i name="DEG_THRESHOLD">      0.00200000</i>
  </separator>
  <separator name="orbital magnetization" >
   <i type="logical" name="NUCIND"> F  </i>
   <v name="MAGPOS">      0.00000000      0.00000000      0.00000000</v>
   <i type="logical" name="LNICSALL"> T  </i>
   <i type="logical" name="ORBITALMAG"> F  </i>
   <i type="logical" name="LMAGBLOCH"> F  </i>
   <i type="logical" name="LCHIMAG"> F  </i>
   <i type="logical" name="LGAUGE"> T  </i>
   <i type="int" name="MAGATOM">     0</i>
   <v name="MAGDIPOL">      0.00000000      0.00000000      0.00000000</v>
   <v name="AVECCONST">      0.00000000      0.00000000      0.00000000</v>
  </separator>
  <separator name="response functions" >
   <i type="logical" name="LADDER"> F  </i>
   <i type="logical" name="LFXC"> F  </i>
   <i type="logical" name="LHARTREE"> T  </i>
   <i type="int" name="IBSE">     0</i>
   <i type="logical" name="LTCTE"> F  </i>
   <i type="logical" name="LTETE"> F  </i>
   <i type="logical" name="LTRIPLET"> F  </i>
   <i type="logical" name="LFXCEPS"> F  </i>
   <i type="logical" name="LFXHEG"> F  </i>
   <i type="logical" name="L2ORDER"> F  </i>
   <i type="logical" name="LUSEW"> F  </i>
   <i name="ENCUTGW">     -2.00000000</i>
   <i name="ENCUTGWSOFT">     -2.00000000</i>
   <i name="ENCUTLF">     -1.00000000</i>
   <i type="int" name="LMAXMP2">    -1</i>
   <i name="SCISSOR">      0.00000000</i>
   <i type="int" name="NOMEGA">     0</i>
   <i type="int" name="NOMEGAR">     0</i>
   <i type="int" name="NBANDSGW">    -1</i>
   <i type="int" name="NBANDSO">    -1</i>
   <i type="int" name="NBANDSV">    -1</i>
   <i type="int" name="NELM">     1</i>
   <i type="int" name="DIM">     3</i>
   <i type="int" name="ANTIRES">     0</i>
   <i name="OMEGAMAX">    -30.00000000</i>
   <i name="OMEGAMIN">    -30.00000000</i>
   <i name="OMEGATL">   -200.00000000</i>
   <i type="int" name="OMEGAGRID">     0</i>
   <i name="CSHIFT">     -0.10000000</i>
   <i type="logical" name="SELFENERGY"> F  </i>
   <i type="logical" name="LSPECTRAL"> F  </i>
   <i type="logical" name="ODDONLYGW"> F  </i>
   <i type="logical" name="EVENONLYGW"> F  </i>
   <i type="int" name="NKREDLFX">     1</i>
   <i type="int" name="NKREDLFY">     1</i>
   <i type="int" name="NKREDLFZ">     1</i>
   <i type="int" name="MAXMEM">  1800</i>
   <i type="int" name="TELESCOPE">     0</i>
   <i type="int" name="TAUPAR">     1</i>
  </separator>
  <separator name="External order field" >
   <i name="OFIELD_KAPPA">      0.00000000</i>
   <v name="OFIELD_K">      0.00000000      0.00000000      0.00000000</v>
   <i name="OFIELD_Q6_NEAR">      0.00000000</i>
   <i name="OFIELD_Q6_FAR">      0.00000000</i>
   <i name="OFIELD_A">      0.00000000</i>
  </separator>
 </parameters>
 <atominfo>
  <atoms>       1 </atoms>
  <types>       1 </types>
  <array name="atoms" >
   <dimension dim="1">ion</dimension>
   <field type="string">element</field>
   <field type="int">atomtype</field>
   <set>
    <rc><c>Ag</c><c>   1</c></rc>
   </set>
  </array>
  <array name="atomtypes" >
   <dimension dim="1">type</dimension>
   <field type="int">atomspertype</field>
   <field type="string">element</field>
   <field>mass</field>
   <field>valence</field>
   <field type="string">pseudopotential</field>
   <set>
    <rc><c>   1</c><c>Ag</c><c>    107.86800000</c><c>     11.00000000</c><c>  PAW_PBE Ag 02Apr2005                  </c></rc>
   </set>
  </array>
 </atominfo>
 <structure name="initialpos" >
  <crystal>
   <varray name="basis" >
    <v>       2.66070140       0.00000000       0.00000000 </v>
    <v>       1.33035070       2.30423500       0.00000000 </v>
    <v>       1.33035070       0.76807833       2.17245359 </v>
   </varray>
   <i name="volume">     13.31905507 </i>
   <varray name="rec_basis" >
    <v>       0.37584075      -0.21699176      -0.15343634 </v>
    <v>       0.00000000       0.43398351      -0.15343634 </v>
    <v>       0.00000000       0.00000000       0.46030903 </v>
   </varray>
  </crystal>
  <varray name="positions" >
   <v>       0.00000000       0.00000000       0.00000000 </v>
  </varray>
 </structure>
 <calculation>
  <scstep>
   <time name="dav">    0.38    0.38</time>
   <time name="total">    0.40    0.41</time>
   <energy>
    <i name="alphaZ">     63.86174276 </i>
    <i name="ewald">  -1061.51610552 </i>
    <i name="hartreedc">   -165.39757121 </i>
    <i name="XCdc">     -9.60553193 </i>
    <i name="pawpsdc">   1003.46214933 </i>
    <i name="pawaedc">   -957.34927423 </i>
    <i name="eentropy">     -0.00269223 </i>
    <i name="bandstr">    117.84336916 </i>
    <i name="atom">   1037.24027811 </i>
    <i name="e_fr_energy">     28.53636424 </i>
    <i name="e_wo_entrp">     28.53905647 </i>
    <i name="e_0_energy">     28.53726165 </i>
   </energy>
  </scstep>
  <scstep>
   <time name="dav">    0.35    0.35</time>
   <time name="total">    0.36    0.37</time>
   <energy>
    <i name="e_fr_energy">     -2.20168728 </i>
    <i name="e_wo_entrp">     -2.20276488 </i>
    <i name="e_0_energy">     -2.20204648 </i>
   </energy>
  </scstep>
  <scstep>
   <time name="dav">    0.42    0.42</time>
   <time name="total">    0.42    0.42</time>
   <energy>
    <i name="e_fr_energy">     -2.40240918 </i>
    <i name="e_wo_entrp">     -2.40338036 </i>
    <i name="e_0_energy">     -2.40273291 </i>
   </energy>
  </scstep>
  <scstep>
   <time name="dav">    0.37    0.37</time>
   <time name="total">    0.38    0.39</time>
   <energy>
    <i name="e_fr_energy">     -2.40277714 </i>
    <i name="e_wo_entrp">     -2.40374820 </i>
    <i name="e_0_energy">     -2.40310083 </i>
   </energy>
  </scstep>
  <scstep>
   <time name="dav">    0.35    0.35</time>
   <time name="total">    0.38    0.44</time>
   <energy>
    <i name="e_fr_energy">     -2.40277903 </i>
    <i name="e_wo_entrp">     -2.40375008 </i>
    <i name="e_0_energy">     -2.40310271 </i>
   </energy>
  </scstep>
  <scstep>
   <time name="dav">    0.38    0.38</time>
   <time name="total">    0.43    0.45</time>
   <energy>
    <i name="e_fr_energy">     -2.13276512 </i>
    <i name="e_wo_entrp">     -2.13364356 </i>
    <i name="e_0_energy">     -2.13305793 </i>
   </energy>
  </scstep>
  <scstep>
   <time name="dav">    0.36    0.36</time>
   <time name="total">    0.42    0.43</time>
   <energy>
    <i name="e_fr_energy">     -2.10450597 </i>
    <i name="e_wo_entrp">     -2.10531489 </i>
    <i name="e_0_energy">     -2.10477561 </i>
   </energy>
  </scstep>
  <scstep>
   <time name="dav">    0.35    0.36</time>
   <time name="total">    0.41    0.42</time>
   <energy>
    <i name="e_fr_energy">     -2.09929786 </i>
    <i name="e_wo_entrp">     -2.10010604 </i>
    <i name="e_0_energy">     -2.09956725 </i>
   </energy>
  </scstep>
  <scstep>
   <time name="dav">    0.22    0.23</time>
   <time name="total">    0.26    0.27</time>
   <energy>
    <i name="alphaZ">     63.86174276 </i>
    <i name="ewald">  -1061.51610552 </i>
    <i name="hartreedc">   -151.41823571 </i>
    <i name="XCdc">    -10.09063890 </i>
    <i name="pawpsdc">   1266.32203255 </i>
    <i name="pawaedc">  -1224.88288265 </i>
    <i name="eentropy">      0.00080904 </i>
    <i name="bandstr">     78.38369549 </i>
    <i name="atom">   1037.24027811 </i>
    <i name="e_fr_energy">     -2.09930483 </i>
    <i name="e_wo_entrp">     -2.10011387 </i>
    <i name="e_0_energy">     -2.09957451 </i>
   </energy>
  </scstep>
  <structure>
   <crystal>
    <varray name="basis" >
     <v>       2.66070140       0.00000000       0.00000000 </v>
     <v>       1.33035070       2.30423500       0.00000000 </v>
     <v>       1.33035070       0.76807833       2.17245359 </v>
    </varray>
    <i name="volume">     13.31905507 </i>
    <varray name="rec_basis" >
     <v>       0.37584075      -0.21699176      -0.15343634 </v>
     <v>       0.00000000       0.43398351      -0.15343634 </v>
     <v>       0.00000000       0.00000000       0.46030903 </v>
    </varray>
   </crystal>
   <varray name="positions" >
    <v>       0.00000000       0.00000000       0.00000000 </v>
   </varray>
  </structure>
  <varray name="forces" >
   <v>       0.00000000       0.00000000       0.00000000 </v>
  </varray>
  <varray name="stress" >
   <v>     592.27504661       0.00000000       0.00000000 </v>
   <v>       0.00000000     592.27504661       0.00000000 </v>
   <v>       0.00000000       0.00000000     592.27504661 </v>
  </varray>
  <energy>
   <i name="e_fr_energy">     -2.09930483 </i>
   <i name="e_wo_entrp">     -2.09957451 </i>
   <i name="e_0_energy">      0.00080904 </i>
  </energy>
  <time name="totalsc">    3.97    4.35</time>
  <eigenvalues>
   <array>
    <dimension dim="1">band</dimension>
    <dimension dim="2">kpoint</dimension>
    <dimension dim="3">spin</dimension>
    <field>eigene</field>
    <field>occ</field>
    <set>
     <set comment="spin 1">
      <set comment="kpoint 1">
       <r>    2.7579    1.0000 </r>
       <r>    6.4450    1.0000 </r>
       <r>    6.5425    1.0000 </r>
       <r>    6.5425    1.0000 </r>
       <r>    8.0639    1.0000 </r>
       <r>    8.0639    1.0000 </r>
       <r>   28.8346    0.0000 </r>
       <r>   32.7400    0.0000 </r>
       <r>   33.9233    0.0000 </r>
      </set>
      <set comment="kpoint 2">
       <r>    3.4961    1.0000 </r>
       <r>    6.2220    1.0000 </r>
       <r>    6.7567    1.0000 </r>
       <r>    6.7901    1.0000 </r>
       <r>    7.8454    1.0000 </r>
       <r>    8.1878    1.0000 </r>
       <r>   29.0501    0.0000 </r>
       <r>   30.1698    0.0000 </r>
       <r>   33.4817    0.0000 </r>
      </set>
      <set comment="kpoint 3">
       <r>    4.4371    1.0000 </r>
       <r>    6.6001    1.0000 </r>
       <r>    6.8323    1.0000 </r>
       <r>    6.8908    1.0000 </r>
       <r>    8.0966    1.0000 </r>
       <r>    8.7995    1.0000 </r>
       <r>   24.7830    0.0000 </r>
       <r>   29.4560    0.0000 </r>
       <r>   33.4657    0.0000 </r>
      </set>
      <set comment="kpoint 4">
       <r>    4.3397    1.0000 </r>
       <r>    6.4809    1.0000 </r>
       <r>    6.5951    1.0000 </r>
       <r>    8.4589    1.0000 </r>
       <r>    8.8809    1.0000 </r>
       <r>   10.4134    1.0000 </r>
       <r>   19.8910    0.0000 </r>
       <r>   28.3936    0.0000 </r>
       <r>   32.1393    0.0000 </r>
      </set>
      <set comment="kpoint 5">
       <r>    4.2427    1.0000 </r>
       <r>    6.3697    1.0000 </r>
       <r>    6.5321    1.0000 </r>
       <r>    8.7832    1.0000 </r>
       <r>    9.3085    1.0000 </r>
       <r>   11.7718    1.0000 </r>
       <r>   17.7422    0.0000 </r>
       <r>   28.0580    0.0000 </r>
       <r>   32.2330    0.0000 </r>
      </set>
      <set comment="kpoint 6">
       <r>    4.4029    1.0000 </r>
       <r>    6.5339    1.0000 </r>
       <r>    6.7058    1.0000 </r>
       <r>    7.8076    1.0000 </r>
       <r>    9.0075    1.0000 </r>
       <r>    9.4961    1.0000 </r>
       <r>   21.4313    0.0000 </r>
       <r>   28.7982    0.0000 </r>
       <r>   32.7241    0.0000 </r>
      </set>
      <set comment="kpoint 7">
       <r>    4.2412    1.0000 </r>
       <r>    6.2891    1.0000 </r>
       <r>    6.8373    1.0000 </r>
       <r>    6.8860    1.0000 </r>
       <r>    8.0586    1.0000 </r>
       <r>    8.3911    1.0000 </r>
       <r>   26.4437    0.0000 </r>
       <r>   29.8945    0.0000 </r>
       <r>   33.5632    0.0000 </r>
      </set>
      <set comment="kpoint 8">
       <r>    3.1441    1.0000 </r>
       <r>    6.2703    1.0000 </r>
       <r>    6.6977    1.0000 </r>
       <r>    6.7024    1.0000 </r>
       <r>    7.8761    1.0000 </r>
       <r>    8.1581    1.0000 </r>
       <r>   29.1512    0.0000 </r>
       <r>   31.4580    0.0000 </r>
       <r>   33.5478    0.0000 </r>
      </set>
      <set comment="kpoint 9">
       <r>    3.8414    1.0000 </r>
       <r>    5.9327    1.0000 </r>
       <r>    6.9841    1.0000 </r>
       <r>    7.0131    1.0000 </r>
       <r>    7.6507    1.0000 </r>
       <r>    8.3341    1.0000 </r>
       <r>   29.4960    0.0000 </r>
       <r>   30.4078    0.0000 </r>
       <r>   32.4139    0.0000 </r>
      </set>
      <set comment="kpoint 10">
       <r>    4.7929    1.0000 </r>
       <r>    5.6676    1.0000 </r>
       <r>    6.7876    1.0000 </r>
       <r>    7.3957    1.0000 </r>
       <r>    8.0912    1.0000 </r>
       <r>    8.9400    1.0000 </r>
       <r>   26.9260    0.0000 </r>
       <r>   28.9764    0.0000 </r>
       <r>   31.6873    0.0000 </r>
      </set>
      <set comment="kpoint 11">
       <r>    4.8324    1.0000 </r>
       <r>    6.2037    1.0000 </r>
       <r>    6.6803    1.0000 </r>
       <r>    7.2638    1.0000 </r>
       <r>    8.9975    1.0000 </r>
       <r>   10.9768    1.0000 </r>
       <r>   21.8163    0.0000 </r>
       <r>   28.2366    0.0000 </r>
       <r>   29.7697    0.0000 </r>
      </set>
      <set comment="kpoint 12">
       <r>    4.7247    1.0000 </r>
       <r>    6.0032    1.0000 </r>
       <r>    7.0111    1.0000 </r>
       <r>    7.5248    1.0000 </r>
       <r>    9.2429    1.0000 </r>
       <r>   13.7648    0.0000 </r>
       <r>   17.8148    0.0000 </r>
       <r>   27.5635    0.0000 </r>
       <r>   29.2404    0.0000 </r>
      </set>
      <set comment="kpoint 13">
       <r>    4.8725    1.0000 </r>
       <r>    6.1431    1.0000 </r>
       <r>    6.9681    1.0000 </r>
       <r>    7.2831    1.0000 </r>
       <r>    8.7789    1.0000 </r>
       <r>   12.1175    1.0123 </r>
       <r>   20.2892    0.0000 </r>
       <r>   27.1459    0.0000 </r>
       <r>   30.0003    0.0000 </r>
      </set>
      <set comment="kpoint 14">
       <r>    5.0795    1.0000 </r>
       <r>    5.9329    1.0000 </r>
       <r>    6.5935    1.0000 </r>
       <r>    7.3499    1.0000 </r>
       <r>    7.8807    1.0000 </r>
       <r>    9.7796    1.0000 </r>
       <r>   25.2644    0.0000 </r>
       <r>   27.5273    0.0000 </r>
       <r>   31.9240    0.0000 </r>
      </set>
      <set comment="kpoint 15">
       <r>    4.1243    1.0000 </r>
       <r>    5.9929    1.0000 </r>
       <r>    6.8910    1.0000 </r>
       <r>    7.0078    1.0000 </r>
       <r>    7.7457    1.0000 </r>
       <r>    8.4649    1.0000 </r>
       <r>   28.1741    0.0000 </r>
       <r>   29.6102    0.0000 </r>
       <r>   32.9545    0.0000 </r>
      </set>
      <set comment="kpoint 16">
       <r>    4.8221    1.0000 </r>
       <r>    5.0946    1.0000 </r>
       <r>    7.6123    1.0000 </r>
       <r>    7.9841    1.0000 </r>
       <r>    8.8383    1.0000 </r>
       <r>    8.8401    1.0000 </r>
       <r>   27.3235    0.0000 </r>
       <r>   28.5729    0.0000 </r>
       <r>   28.9999    0.0000 </r>
      </set>
      <set comment="kpoint 17">
       <r>    4.7581    1.0000 </r>
       <r>    4.9752    1.0000 </r>
       <r>    7.4840    1.0000 </r>
       <r>    8.4182    1.0000 </r>
       <r>    9.0706    1.0000 </r>
       <r>   11.3535    1.0000 </r>
       <r>   24.2439    0.0000 </r>
       <r>   26.3140    0.0000 </r>
       <r>   26.6280    0.0000 </r>
      </set>
      <set comment="kpoint 18">
       <r>    4.8133    1.0000 </r>
       <r>    5.4253    1.0000 </r>
       <r>    7.0727    1.0000 </r>
       <r>    8.0352    1.0000 </r>
       <r>    9.3235    1.0000 </r>
       <r>   15.0640    0.0000 </r>
       <r>   19.5178    0.0000 </r>
       <r>   24.3561    0.0000 </r>
       <r>   26.7517    0.0000 </r>
      </set>
      <set comment="kpoint 19">
       <r>    5.2553    1.0000 </r>
       <r>    5.9028    1.0000 </r>
       <r>    6.4853    1.0000 </r>
       <r>    7.7688    1.0000 </r>
       <r>    8.8201    1.0000 </r>
       <r>   15.3017    0.0000 </r>
       <r>   19.8437    0.0000 </r>
       <r>   22.8270    0.0000 </r>
       <r>   28.5050    0.0000 </r>
      </set>
      <set comment="kpoint 20">
       <r>    5.4565    1.0000 </r>
       <r>    6.0052    1.0000 </r>
       <r>    6.3420    1.0000 </r>
       <r>    7.5503    1.0000 </r>
       <r>    8.2927    1.0000 </r>
       <r>   12.1806    1.0257 </r>
       <r>   22.4394    0.0000 </r>
       <r>   24.8540    0.0000 </r>
       <r>   30.1493    0.0000 </r>
      </set>
      <set comment="kpoint 21">
       <r>    4.6580    1.0000 </r>
       <r>    6.5412    1.0000 </r>
       <r>    6.7822    1.0000 </r>
       <r>    6.9967    1.0000 </r>
       <r>    8.4889    1.0000 </r>
       <r>    9.6120    1.0000 </r>
       <r>   23.2464    0.0000 </r>
       <r>   28.9190    0.0000 </r>
       <r>   31.7903    0.0000 </r>
      </set>
      <set comment="kpoint 22">
       <r>    4.2567    1.0000 </r>
       <r>    4.4457    1.0000 </r>
       <r>    8.9568    1.0000 </r>
       <r>    8.9669    1.0000 </r>
       <r>    9.3708    1.0000 </r>
       <r>   12.2498    1.0353 </r>
       <r>   23.7265    0.0000 </r>
       <r>   24.5429    0.0000 </r>
       <r>   25.3711    0.0000 </r>
      </set>
      <set comment="kpoint 23">
       <r>    4.2857    1.0000 </r>
       <r>    4.5424    1.0000 </r>
       <r>    8.4776    1.0000 </r>
       <r>    8.9283    1.0000 </r>
       <r>    9.5453    1.0000 </r>
       <r>   14.9477    0.0000 </r>
       <r>   21.6395    0.0000 </r>
       <r>   22.5857    0.0000 </r>
       <r>   24.5135    0.0000 </r>
      </set>
      <set comment="kpoint 24">
       <r>    4.7159    1.0000 </r>
       <r>    5.2857    1.0000 </r>
       <r>    7.2830    1.0000 </r>
       <r>    8.2965    1.0000 </r>
       <r>    9.2777    1.0000 </r>
       <r>   17.1824    0.0000 </r>
       <r>   18.9211    0.0000 </r>
       <r>   21.9552    0.0000 </r>
       <r>   26.3167    0.0000 </r>
      </set>
      <set comment="kpoint 25">
       <r>    5.0644    1.0000 </r>
       <r>    5.8025    1.0000 </r>
       <r>    6.9841    1.0000 </r>
       <r>    7.4060    1.0000 </r>
       <r>    9.0759    1.0000 </r>
       <r>   15.0799    0.0000 </r>
       <r>   18.0483    0.0000 </r>
       <r>   25.4166    0.0000 </r>
       <r>   28.6352    0.0000 </r>
      </set>
      <set comment="kpoint 26">
       <r>    4.4570    1.0000 </r>
       <r>    6.2726    1.0000 </r>
       <r>    6.7213    1.0000 </r>
       <r>    8.0632    1.0000 </r>
       <r>    9.1751    1.0000 </r>
       <r>   11.9645    1.0007 </r>
       <r>   18.6432    0.0000 </r>
       <r>   28.1552    0.0000 </r>
       <r>   30.8548    0.0000 </r>
      </set>
      <set comment="kpoint 27">
       <r>    4.0660    1.0000 </r>
       <r>    4.3019    1.0000 </r>
       <r>    9.1650    1.0000 </r>
       <r>    9.3220    1.0000 </r>
       <r>    9.5658    1.0000 </r>
       <r>   13.8539    0.0000 </r>
       <r>   21.6662    0.0000 </r>
       <r>   23.8210    0.0000 </r>
       <r>   24.6194    0.0000 </r>
      </set>
      <set comment="kpoint 28">
       <r>    4.4704    1.0000 </r>
       <r>    4.6849    1.0000 </r>
       <r>    8.0610    1.0000 </r>
       <r>    8.8207    1.0000 </r>
       <r>    9.3467    1.0000 </r>
       <r>   13.2615    0.0000 </r>
       <r>   23.0770    0.0000 </r>
       <r>   23.9202    0.0000 </r>
       <r>   25.1556    0.0000 </r>
      </set>
      <set comment="kpoint 29">
       <r>    4.8861    1.0000 </r>
       <r>    5.7475    1.0000 </r>
       <r>    6.8159    1.0000 </r>
       <r>    7.6456    1.0000 </r>
       <r>    9.2647    1.0000 </r>
       <r>   12.8629   -0.0120 </r>
       <r>   20.5328    0.0000 </r>
       <r>   26.9668    0.0000 </r>
       <r>   27.6689    0.0000 </r>
      </set>
      <set comment="kpoint 30">
       <r>    4.5712    1.0000 </r>
       <r>    4.7218    1.0000 </r>
       <r>    8.3498    1.0000 </r>
       <r>    8.5269    1.0000 </r>
       <r>    9.1121    1.0000 </r>
       <r>   10.3573    1.0000 </r>
       <r>   25.8028    0.0000 </r>
       <r>   26.4737    0.0000 </r>
       <r>   26.7522    0.0000 </r>
      </set>
      <set comment="kpoint 31">
       <r>    4.9949    1.0000 </r>
       <r>    5.3389    1.0000 </r>
       <r>    6.9334    1.0000 </r>
       <r>    7.8881    1.0000 </r>
       <r>    8.6655    1.0000 </r>
       <r>    9.8287    1.0000 </r>
       <r>   25.5890    0.0000 </r>
       <r>   27.7358    0.0000 </r>
       <r>   29.3412    0.0000 </r>
      </set>
      <set comment="kpoint 32">
       <r>    4.5843    1.0000 </r>
       <r>    5.5160    1.0000 </r>
       <r>    7.1536    1.0000 </r>
       <r>    7.4545    1.0000 </r>
       <r>    7.9199    1.0000 </r>
       <r>    8.5713    1.0000 </r>
       <r>   28.7105    0.0000 </r>
       <r>   30.3527    0.0000 </r>
       <r>   30.5880    0.0000 </r>
      </set>
      <set comment="kpoint 33">
       <r>    3.7741    1.0000 </r>
       <r>    6.3153    1.0000 </r>
       <r>    6.7814    1.0000 </r>
       <r>    6.7814    1.0000 </r>
       <r>    8.0534    1.0000 </r>
       <r>    8.0534    1.0000 </r>
       <r>   27.8915    0.0000 </r>
       <r>   29.9811    0.0000 </r>
       <r>   34.9769    0.0000 </r>
      </set>
      <set comment="kpoint 34">
       <r>    4.6016    1.0000 </r>
       <r>    6.0104    1.0000 </r>
       <r>    6.8453    1.0000 </r>
       <r>    7.0994    1.0000 </r>
       <r>    7.6411    1.0000 </r>
       <r>    8.9783    1.0000 </r>
       <r>   26.6733    0.0000 </r>
       <r>   28.6552    0.0000 </r>
       <r>   33.3035    0.0000 </r>
      </set>
      <set comment="kpoint 35">
       <r>    5.2991    1.0000 </r>
       <r>    6.0796    1.0000 </r>
       <r>    6.6136    1.0000 </r>
       <r>    7.2742    1.0000 </r>
       <r>    7.9021    1.0000 </r>
       <r>   10.8391    1.0000 </r>
       <r>   23.7792    0.0000 </r>
       <r>   26.1300    0.0000 </r>
       <r>   31.5686    0.0000 </r>
      </set>
      <set comment="kpoint 36">
       <r>    4.9431    1.0000 </r>
       <r>    6.0153    1.0000 </r>
       <r>    7.1155    1.0000 </r>
       <r>    7.2768    1.0000 </r>
       <r>    8.8401    1.0000 </r>
       <r>   13.4905    0.0000 </r>
       <r>   19.0063    0.0000 </r>
       <r>   26.1483    0.0000 </r>
       <r>   30.4704    0.0000 </r>
      </set>
      <set comment="kpoint 37">
       <r>    4.7667    1.0000 </r>
       <r>    5.9590    1.0000 </r>
       <r>    7.1623    1.0000 </r>
       <r>    7.2092    1.0000 </r>
       <r>    9.3554    1.0000 </r>
       <r>   13.3362    0.0000 </r>
       <r>   18.8322    0.0000 </r>
       <r>   27.2081    0.0000 </r>
       <r>   29.7448    0.0000 </r>
      </set>
      <set comment="kpoint 38">
       <r>    4.8546    1.0000 </r>
       <r>    5.8023    1.0000 </r>
       <r>    6.7793    1.0000 </r>
       <r>    7.4419    1.0000 </r>
       <r>    9.1144    1.0000 </r>
       <r>   10.1064    1.0000 </r>
       <r>   23.5993    0.0000 </r>
       <r>   28.9067    0.0000 </r>
       <r>   29.5263    0.0000 </r>
      </set>
      <set comment="kpoint 39">
       <r>    4.6911    1.0000 </r>
       <r>    6.1446    1.0000 </r>
       <r>    6.6828    1.0000 </r>
       <r>    7.1060    1.0000 </r>
       <r>    8.7558    1.0000 </r>
       <r>    8.7710    1.0000 </r>
       <r>   25.0127    0.0000 </r>
       <r>   29.7249    0.0000 </r>
       <r>   31.5241    0.0000 </r>
      </set>
      <set comment="kpoint 40">
       <r>    5.2548    1.0000 </r>
       <r>    5.8107    1.0000 </r>
       <r>    6.3393    1.0000 </r>
       <r>    7.7788    1.0000 </r>
       <r>    8.4052    1.0000 </r>
       <r>   10.9499    1.0000 </r>
       <r>   23.9225    0.0000 </r>
       <r>   26.2861    0.0000 </r>
       <r>   29.6315    0.0000 </r>
      </set>
      <set comment="kpoint 41">
       <r>    5.5592    1.0000 </r>
       <r>    5.6742    1.0000 </r>
       <r>    6.2055    1.0000 </r>
       <r>    7.9038    1.0000 </r>
       <r>    8.7848    1.0000 </r>
       <r>   13.8998    0.0000 </r>
       <r>   21.2385    0.0000 </r>
       <r>   23.8137    0.0000 </r>
       <r>   27.6000    0.0000 </r>
      </set>
      <set comment="kpoint 42">
       <r>    5.2259    1.0000 </r>
       <r>    5.5950    1.0000 </r>
       <r>    6.6201    1.0000 </r>
       <r>    7.7910    1.0000 </r>
       <r>    9.2129    1.0000 </r>
       <r>   16.1100    0.0000 </r>
       <r>   18.2585    0.0000 </r>
       <r>   24.9572    0.0000 </r>
       <r>   25.8643    0.0000 </r>
      </set>
      <set comment="kpoint 43">
       <r>    5.1064    1.0000 </r>
       <r>    5.4172    1.0000 </r>
       <r>    6.6441    1.0000 </r>
       <r>    8.2284    1.0000 </r>
       <r>    8.8799    1.0000 </r>
       <r>   12.5917    0.1237 </r>
       <r>   22.6788    0.0000 </r>
       <r>   25.0984    0.0000 </r>
       <r>   26.9623    0.0000 </r>
      </set>
      <set comment="kpoint 44">
       <r>    4.7431    1.0000 </r>
       <r>    5.3455    1.0000 </r>
       <r>    7.2515    1.0000 </r>
       <r>    7.8633    1.0000 </r>
       <r>    9.3512    1.0000 </r>
       <r>   11.9129    1.0002 </r>
       <r>   22.2638    0.0000 </r>
       <r>   26.7156    0.0000 </r>
       <r>   27.8597    0.0000 </r>
      </set>
      <set comment="kpoint 45">
       <r>    4.8569    1.0000 </r>
       <r>    5.1194    1.0000 </r>
       <r>    7.0875    1.0000 </r>
       <r>    8.4767    1.0000 </r>
       <r>    9.2723    1.0000 </r>
       <r>   14.5952    0.0000 </r>
       <r>   21.6684    0.0000 </r>
       <r>   23.9883    0.0000 </r>
       <r>   24.3916    0.0000 </r>
      </set>
      <set comment="kpoint 46">
       <r>    5.0445    1.0000 </r>
       <r>    5.6201    1.0000 </r>
       <r>    6.4485    1.0000 </r>
       <r>    8.0944    1.0000 </r>
       <r>    9.5360    1.0000 </r>
       <r>   18.1272    0.0000 </r>
       <r>   19.6944    0.0000 </r>
       <r>   21.9933    0.0000 </r>
       <r>   22.9872    0.0000 </r>
      </set>
      <set comment="kpoint 47">
       <r>    5.2600    1.0000 </r>
       <r>    5.6313    1.0000 </r>
       <r>    6.3065    1.0000 </r>
       <r>    8.0789    1.0000 </r>
       <r>    9.2395    1.0000 </r>
       <r>   15.9781    0.0000 </r>
       <r>   20.2639    0.0000 </r>
       <r>   23.0761    0.0000 </r>
       <r>   24.8032    0.0000 </r>
      </set>
      <set comment="kpoint 48">
       <r>    4.4109    1.0000 </r>
       <r>    4.8373    1.0000 </r>
       <r>    8.0714    1.0000 </r>
       <r>    8.6475    1.0000 </r>
       <r>    9.3856    1.0000 </r>
       <r>   15.8368    0.0000 </r>
       <r>   20.5505    0.0000 </r>
       <r>   21.8238    0.0000 </r>
       <r>   26.0526    0.0000 </r>
      </set>
      <set comment="kpoint 49">
       <r>    4.6713    1.0000 </r>
       <r>    4.9961    1.0000 </r>
       <r>    7.4288    1.0000 </r>
       <r>    8.4879    1.0000 </r>
       <r>    9.5381    1.0000 </r>
       <r>   16.4882    0.0000 </r>
       <r>   21.0562    0.0000 </r>
       <r>   21.8793    0.0000 </r>
       <r>   23.7463    0.0000 </r>
      </set>
      <set comment="kpoint 50">
       <r>    4.5504    1.0000 </r>
       <r>    5.0023    1.0000 </r>
       <r>    7.7547    1.0000 </r>
       <r>    8.3063    1.0000 </r>
       <r>    9.4338    1.0000 </r>
       <r>   13.9861    0.0000 </r>
       <r>   21.1770    0.0000 </r>
       <r>   24.0327    0.0000 </r>
       <r>   26.6711    0.0000 </r>
      </set>
      <set comment="kpoint 51">
       <r>    4.3520    1.0000 </r>
       <r>    6.6879    1.0000 </r>
       <r>    6.6879    1.0000 </r>
       <r>    7.6942    1.0000 </r>
       <r>    8.5854    1.0000 </r>
       <r>    8.5854    1.0000 </r>
       <r>   23.0145    0.0000 </r>
       <r>   29.1638    0.0000 </r>
       <r>   34.8565    0.0000 </r>
      </set>
      <set comment="kpoint 52">
       <r>    4.7209    1.0000 </r>
       <r>    6.4035    1.0000 </r>
       <r>    6.8788    1.0000 </r>
       <r>    7.3301    1.0000 </r>
       <r>    8.4099    1.0000 </r>
       <r>   10.6838    1.0000 </r>
       <r>   21.6768    0.0000 </r>
       <r>   28.0081    0.0000 </r>
       <r>   31.1937    0.0000 </r>
      </set>
      <set comment="kpoint 53">
       <r>    5.3824    1.0000 </r>
       <r>    6.0208    1.0000 </r>
       <r>    6.5425    1.0000 </r>
       <r>    7.4988    1.0000 </r>
       <r>    8.4567    1.0000 </r>
       <r>   13.5952    0.0000 </r>
       <r>   21.0923    0.0000 </r>
       <r>   23.6598    0.0000 </r>
       <r>   30.8904    0.0000 </r>
      </set>
      <set comment="kpoint 54">
       <r>    4.9067    1.0000 </r>
       <r>    5.6874    1.0000 </r>
       <r>    6.9324    1.0000 </r>
       <r>    7.9952    1.0000 </r>
       <r>    8.9913    1.0000 </r>
       <r>   16.8741    0.0000 </r>
       <r>   18.5076    0.0000 </r>
       <r>   22.2382    0.0000 </r>
       <r>   28.5517    0.0000 </r>
      </set>
      <set comment="kpoint 55">
       <r>    4.5644    1.0000 </r>
       <r>    6.2718    1.0000 </r>
       <r>    6.8868    1.0000 </r>
       <r>    7.4435    1.0000 </r>
       <r>    9.2828    1.0000 </r>
       <r>   11.2534    1.0000 </r>
       <r>   20.0245    0.0000 </r>
       <r>   28.4756    0.0000 </r>
       <r>   31.0064    0.0000 </r>
      </set>
      <set comment="kpoint 56">
       <r>    5.0856    1.0000 </r>
       <r>    5.8001    1.0000 </r>
       <r>    6.8294    1.0000 </r>
       <r>    7.4740    1.0000 </r>
       <r>    9.0893    1.0000 </r>
       <r>   13.9702    0.0000 </r>
       <r>   19.1055    0.0000 </r>
       <r>   26.3965    0.0000 </r>
       <r>   27.7222    0.0000 </r>
      </set>
      <set comment="kpoint 57">
       <r>    5.1441    1.0000 </r>
       <r>    5.6942    1.0000 </r>
       <r>    6.4690    1.0000 </r>
       <r>    7.9971    1.0000 </r>
       <r>    9.2383    1.0000 </r>
       <r>   17.3392    0.0000 </r>
       <r>   18.8114    0.0000 </r>
       <r>   22.3397    0.0000 </r>
       <r>   25.5947    0.0000 </r>
      </set>
      <set comment="kpoint 58">
       <r>    4.8963    1.0000 </r>
       <r>    5.7411    1.0000 </r>
       <r>    7.0001    1.0000 </r>
       <r>    7.6214    1.0000 </r>
       <r>    9.2234    1.0000 </r>
       <r>   15.5702    0.0000 </r>
       <r>   18.0180    0.0000 </r>
       <r>   24.7375    0.0000 </r>
       <r>   28.9380    0.0000 </r>
      </set>
      <set comment="kpoint 59">
       <r>    4.1806    1.0000 </r>
       <r>    6.4751    1.0000 </r>
       <r>    6.4751    1.0000 </r>
       <r>    9.2045    1.0000 </r>
       <r>    9.2045    1.0000 </r>
       <r>   10.5488    1.0000 </r>
       <r>   18.5410    0.0000 </r>
       <r>   28.1245    0.0000 </r>
       <r>   33.0788    0.0000 </r>
      </set>
      <set comment="kpoint 60">
       <r>    4.5108    1.0000 </r>
       <r>    6.1888    1.0000 </r>
       <r>    6.7574    1.0000 </r>
       <r>    8.0559    1.0000 </r>
       <r>    9.1713    1.0000 </r>
       <r>   12.9474   -0.0028 </r>
       <r>   17.7857    0.0000 </r>
       <r>   27.8381    0.0000 </r>
       <r>   30.6872    0.0000 </r>
      </set>
     </set>
    </set>
   </array>
  </eigenvalues>
  <separator name="orbital magnetization" >
   <v name="MAGDIPOLOUT">      0.00000000      0.00000000      0.00000000</v>
  </separator>
  <dos>
   <i name="efermi">     12.48941227 </i>
   <total>
    <array>
     <dimension dim="1">gridpoints</dimension>
     <dimension dim="2">spin</dimension>
     <field>energy</field>
     <field>total</field>
     <field>integrated</field>
     <set>
      <set comment="spin 1">
       <r>     0.7579     0.0000     0.0000 </r>
       <r>     0.8787     0.0000     0.0000 </r>
       <r>     0.9994     0.0000     0.0000 </r>
       <r>     1.1201     0.0000     0.0000 </r>
       <r>     1.2409     0.0000     0.0000 </r>
       <r>     1.3616     0.0000     0.0000 </r>
       <r>     1.4823     0.0000     0.0000 </r>
       <r>     1.6030     0.0000     0.0000 </r>
       <r>     1.7238     0.0000     0.0000 </r>
       <r>     1.8445     0.0000     0.0000 </r>
       <r>     1.9652     0.0000     0.0000 </r>
       <r>     2.0860     0.0000     0.0000 </r>
       <r>     2.2067     0.0000     0.0000 </r>
       <r>     2.3274    -0.0003     0.0000 </r>
       <r>     2.4482    -0.0013    -0.0002 </r>
       <r>     2.5689     0.0004    -0.0001 </r>
       <r>     2.6896     0.0154     0.0017 </r>
       <r>     2.8103     0.0281     0.0051 </r>
       <r>     2.9311     0.0167     0.0071 </r>
       <r>     3.0518     0.0363     0.0115 </r>
       <r>     3.1725     0.0856     0.0218 </r>
       <r>     3.2933     0.0677     0.0300 </r>
       <r>     3.4140     0.0503     0.0361 </r>
       <r>     3.5347     0.0823     0.0460 </r>
       <r>     3.6555     0.0697     0.0544 </r>
       <r>     3.7762     0.0730     0.0633 </r>
       <r>     3.8969     0.0995     0.0753 </r>
       <r>     4.0176     0.1409     0.0923 </r>
       <r>     4.1384     0.3614     0.1359 </r>
       <r>     4.2591     0.7167     0.2224 </r>
       <r>     4.3798     1.0468     0.3488 </r>
       <r>     4.5006     1.3499     0.5118 </r>
       <r>     4.6213     1.7475     0.7228 </r>
       <r>     4.7420     2.3485     1.0063 </r>
       <r>     4.8628     2.6523     1.3265 </r>
       <r>     4.9835     2.4338     1.6203 </r>
       <r>     5.1042     2.2129     1.8875 </r>
       <r>     5.2249     1.9836     2.1270 </r>
       <r>     5.3457     1.6946     2.3316 </r>
       <r>     5.4664     1.3735     2.4974 </r>
       <r>     5.5871     1.3714     2.6630 </r>
       <r>     5.7079     1.7309     2.8719 </r>
       <r>     5.8286     1.7809     3.0870 </r>
       <r>     5.9493     1.6427     3.2853 </r>
       <r>     6.0701     1.5612     3.4738 </r>
       <r>     6.1908     1.5325     3.6588 </r>
       <r>     6.3115     1.7174     3.8661 </r>
       <r>     6.4322     1.8274     4.0867 </r>
       <r>     6.5530     2.0246     4.3312 </r>
       <r>     6.6737     2.3902     4.6197 </r>
       <r>     6.7944     2.7214     4.9483 </r>
       <r>     6.9152     2.8552     5.2930 </r>
       <r>     7.0359     2.5787     5.6043 </r>
       <r>     7.1566     1.9137     5.8354 </r>
       <r>     7.2774     1.6024     6.0288 </r>
       <r>     7.3981     1.8712     6.2547 </r>
       <r>     7.5188     1.9192     6.4864 </r>
       <r>     7.6395     1.5586     6.6746 </r>
       <r>     7.7603     1.5229     6.8585 </r>
       <r>     7.8810     1.9089     7.0889 </r>
       <r>     8.0017     2.2866     7.3650 </r>
       <r>     8.1225     2.2784     7.6401 </r>
       <r>     8.2432     1.6707     7.8418 </r>
       <r>     8.3639     1.5922     8.0340 </r>
       <r>     8.4847     1.9815     8.2732 </r>
       <r>     8.6054     1.5769     8.4636 </r>
       <r>     8.7261     1.2554     8.6152 </r>
       <r>     8.8468     1.8358     8.8368 </r>
       <r>     8.9676     2.1126     9.0919 </r>
       <r>     9.0883     2.0041     9.3338 </r>
       <r>     9.2090     2.3882     9.6222 </r>
       <r>     9.3298     2.6420     9.9411 </r>
       <r>     9.4505     1.9134    10.1721 </r>
       <r>     9.5712     1.1619    10.3124 </r>
       <r>     9.6919     0.7407    10.4018 </r>
       <r>     9.8127     0.4496    10.4561 </r>
       <r>     9.9334     0.2670    10.4883 </r>
       <r>    10.0541     0.1081    10.5014 </r>
       <r>    10.1749     0.0734    10.5102 </r>
       <r>    10.2956     0.1106    10.5236 </r>
       <r>    10.4163     0.1773    10.5450 </r>
       <r>    10.5371     0.1595    10.5643 </r>
       <r>    10.6578     0.1086    10.5774 </r>
       <r>    10.7785     0.1522    10.5957 </r>
       <r>    10.8992     0.3215    10.6346 </r>
       <r>    11.0200     0.4130    10.6844 </r>
       <r>    11.1407     0.2382    10.7132 </r>
       <r>    11.2614     0.1670    10.7333 </r>
       <r>    11.3822     0.2401    10.7623 </r>
       <r>    11.5029     0.1455    10.7799 </r>
       <r>    11.6236     0.0183    10.7821 </r>
       <r>    11.7444     0.0524    10.7884 </r>
       <r>    11.8651     0.1913    10.8115 </r>
       <r>    11.9858     0.3375    10.8523 </r>
       <r>    12.1065     0.4456    10.9061 </r>
       <r>    12.2273     0.4511    10.9605 </r>
       <r>    12.3480     0.2399    10.9895 </r>
       <r>    12.4687     0.0719    10.9982 </r>
       <r>    12.5895     0.1325    11.0142 </r>
       <r>    12.7102     0.1755    11.0353 </r>
       <r>    12.8309     0.2020    11.0597 </r>
       <r>    12.9517     0.2483    11.0897 </r>
       <r>    13.0724     0.1465    11.1074 </r>
       <r>    13.1931     0.1198    11.1219 </r>
       <r>    13.3138     0.2471    11.1517 </r>
       <r>    13.4346     0.2526    11.1822 </r>
       <r>    13.5553     0.1823    11.2042 </r>
       <r>    13.6760     0.1902    11.2272 </r>
       <r>    13.7968     0.3456    11.2689 </r>
       <r>    13.9175     0.5600    11.3365 </r>
       <r>    14.0382     0.4972    11.3965 </r>
       <r>    14.1590     0.1738    11.4175 </r>
       <r>    14.2797    -0.0167    11.4155 </r>
       <r>    14.4004    -0.0169    11.4134 </r>
       <r>    14.5211     0.0844    11.4236 </r>
       <r>    14.6419     0.1754    11.4448 </r>
       <r>    14.7626     0.1072    11.4577 </r>
       <r>    14.8833     0.1164    11.4718 </r>
       <r>    15.0041     0.3638    11.5157 </r>
       <r>    15.1248     0.4890    11.5748 </r>
       <r>    15.2455     0.3381    11.6156 </r>
       <r>    15.3663     0.1972    11.6394 </r>
       <r>    15.4870     0.1173    11.6535 </r>
       <r>    15.6077     0.0837    11.6636 </r>
       <r>    15.7284     0.0708    11.6722 </r>
       <r>    15.8492     0.1211    11.6868 </r>
       <r>    15.9699     0.2576    11.7179 </r>
       <r>    16.0906     0.3294    11.7577 </r>
       <r>    16.2114     0.2142    11.7835 </r>
       <r>    16.3321     0.0707    11.7921 </r>
       <r>    16.4528     0.1187    11.8064 </r>
       <r>    16.5736     0.1732    11.8273 </r>
       <r>    16.6943     0.0796    11.8369 </r>
       <r>    16.8150     0.0457    11.8424 </r>
       <r>    16.9357     0.0760    11.8516 </r>
       <r>    17.0565     0.0810    11.8614 </r>
       <r>    17.1772     0.1771    11.8828 </r>
       <r>    17.2979     0.2872    11.9174 </r>
       <r>    17.4187     0.2249    11.9446 </r>
       <r>    17.5394     0.0609    11.9519 </r>
       <r>    17.6601     0.0672    11.9601 </r>
       <r>    17.7809     0.2773    11.9935 </r>
       <r>    17.9016     0.3665    12.0378 </r>
       <r>    18.0223     0.3832    12.0841 </r>
       <r>    18.1430     0.4692    12.1407 </r>
       <r>    18.2638     0.3858    12.1873 </r>
       <r>    18.3845     0.1925    12.2105 </r>
       <r>    18.5052     0.1408    12.2275 </r>
       <r>    18.6260     0.2399    12.2565 </r>
       <r>    18.7467     0.3447    12.2981 </r>
       <r>    18.8674     0.4542    12.3529 </r>
       <r>    18.9882     0.4743    12.4102 </r>
       <r>    19.1089     0.3596    12.4536 </r>
       <r>    19.2296     0.1703    12.4742 </r>
       <r>    19.3503     0.0322    12.4781 </r>
       <r>    19.4711     0.0943    12.4894 </r>
       <r>    19.5918     0.2287    12.5170 </r>
       <r>    19.7125     0.3003    12.5533 </r>
       <r>    19.8333     0.3559    12.5963 </r>
       <r>    19.9540     0.3200    12.6349 </r>
       <r>    20.0747     0.1843    12.6571 </r>
       <r>    20.1955     0.2053    12.6819 </r>
       <r>    20.3162     0.3554    12.7248 </r>
       <r>    20.4369     0.3391    12.7658 </r>
       <r>    20.5576     0.2954    12.8014 </r>
       <r>    20.6784     0.1970    12.8252 </r>
       <r>    20.7991     0.0217    12.8278 </r>
       <r>    20.9198     0.0099    12.8290 </r>
       <r>    21.0406     0.2156    12.8551 </r>
       <r>    21.1613     0.4236    12.9062 </r>
       <r>    21.2820     0.3790    12.9520 </r>
       <r>    21.4027     0.1848    12.9743 </r>
       <r>    21.5235     0.1682    12.9946 </r>
       <r>    21.6442     0.4624    13.0504 </r>
       <r>    21.7649     0.7265    13.1381 </r>
       <r>    21.8857     0.7685    13.2309 </r>
       <r>    22.0064     0.6309    13.3071 </r>
       <r>    22.1271     0.3227    13.3460 </r>
       <r>    22.2479     0.2454    13.3757 </r>
       <r>    22.3686     0.4009    13.4241 </r>
       <r>    22.4893     0.4283    13.4758 </r>
       <r>    22.6100     0.3938    13.5233 </r>
       <r>    22.7308     0.3708    13.5681 </r>
       <r>    22.8515     0.3245    13.6073 </r>
       <r>    22.9722     0.4198    13.6579 </r>
       <r>    23.0930     0.5880    13.7289 </r>
       <r>    23.2137     0.4903    13.7881 </r>
       <r>    23.3344     0.2212    13.8148 </r>
       <r>    23.4552     0.0349    13.8191 </r>
       <r>    23.5759     0.0931    13.8303 </r>
       <r>    23.6966     0.4419    13.8836 </r>
       <r>    23.8173     0.8394    13.9850 </r>
       <r>    23.9381     0.9322    14.0975 </r>
       <r>    24.0588     0.6296    14.1735 </r>
       <r>    24.1795     0.2896    14.2085 </r>
       <r>    24.3003     0.3408    14.2497 </r>
       <r>    24.4210     0.5380    14.3146 </r>
       <r>    24.5417     0.5220    14.3776 </r>
       <r>    24.6625     0.4142    14.4276 </r>
       <r>    24.7832     0.4953    14.4874 </r>
       <r>    24.9039     0.6212    14.5624 </r>
       <r>    25.0246     0.5819    14.6327 </r>
       <r>    25.1454     0.5409    14.6980 </r>
       <r>    25.2661     0.4935    14.7576 </r>
       <r>    25.3868     0.4293    14.8094 </r>
       <r>    25.5076     0.4281    14.8611 </r>
       <r>    25.6283     0.4355    14.9137 </r>
       <r>    25.7490     0.3428    14.9551 </r>
       <r>    25.8698     0.2766    14.9884 </r>
       <r>    25.9905     0.2363    15.0170 </r>
       <r>    26.1112     0.2574    15.0480 </r>
       <r>    26.2319     0.4941    15.1077 </r>
       <r>    26.3527     0.7832    15.2023 </r>
       <r>    26.4734     0.7051    15.2874 </r>
       <r>    26.5941     0.5184    15.3500 </r>
       <r>    26.7149     0.6275    15.4257 </r>
       <r>    26.8356     0.6725    15.5069 </r>
       <r>    26.9563     0.6390    15.5841 </r>
       <r>    27.0771     0.5587    15.6515 </r>
       <r>    27.1978     0.3777    15.6971 </r>
       <r>    27.3185     0.2207    15.7238 </r>
       <r>    27.4392     0.2105    15.7492 </r>
       <r>    27.5600     0.5471    15.8152 </r>
       <r>    27.6807     0.8888    15.9225 </r>
       <r>    27.8014     0.7877    16.0176 </r>
       <r>    27.9222     0.4455    16.0714 </r>
       <r>    28.0429     0.3564    16.1144 </r>
       <r>    28.1636     0.5652    16.1827 </r>
       <r>    28.2844     0.5666    16.2511 </r>
       <r>    28.4051     0.3972    16.2990 </r>
       <r>    28.5258     0.5289    16.3629 </r>
       <r>    28.6465     0.6669    16.4434 </r>
       <r>    28.7673     0.5481    16.5096 </r>
       <r>    28.8880     0.5824    16.5799 </r>
       <r>    29.0087     0.7311    16.6681 </r>
       <r>    29.1295     0.5780    16.7379 </r>
       <r>    29.2502     0.4112    16.7876 </r>
       <r>    29.3709     0.3971    16.8355 </r>
       <r>    29.4917     0.4525    16.8901 </r>
       <r>    29.6124     0.6126    16.9641 </r>
       <r>    29.7331     0.6816    17.0464 </r>
       <r>    29.8538     0.5203    17.1092 </r>
       <r>    29.9746     0.3691    17.1538 </r>
       <r>    30.0953     0.3734    17.1988 </r>
       <r>    30.2160     0.3538    17.2416 </r>
       <r>    30.3368     0.2767    17.2750 </r>
       <r>    30.4575     0.2699    17.3075 </r>
       <r>    30.5782     0.2509    17.3378 </r>
       <r>    30.6990     0.2136    17.3636 </r>
       <r>    30.8197     0.2701    17.3962 </r>
       <r>    30.9404     0.3318    17.4363 </r>
       <r>    31.0611     0.2371    17.4649 </r>
       <r>    31.1819     0.1226    17.4797 </r>
       <r>    31.3026     0.0762    17.4889 </r>
       <r>    31.4233     0.1161    17.5029 </r>
       <r>    31.5441     0.2610    17.5345 </r>
       <r>    31.6648     0.3732    17.5795 </r>
       <r>    31.7855     0.4111    17.6292 </r>
       <r>    31.9062     0.3626    17.6729 </r>
       <r>    32.0270     0.2361    17.7014 </r>
       <r>    32.1477     0.1647    17.7213 </r>
       <r>    32.2684     0.1702    17.7419 </r>
       <r>    32.3892     0.1442    17.7593 </r>
       <r>    32.5099     0.0889    17.7700 </r>
       <r>    32.6306     0.0631    17.7776 </r>
       <r>    32.7514     0.1119    17.7912 </r>
       <r>    32.8721     0.1718    17.8119 </r>
       <r>    32.9928     0.2104    17.8373 </r>
       <r>    33.1135     0.1474    17.8551 </r>
       <r>    33.2343     0.0685    17.8634 </r>
       <r>    33.3550     0.1330    17.8794 </r>
       <r>    33.4757     0.3013    17.9158 </r>
       <r>    33.5965     0.3503    17.9581 </r>
       <r>    33.7172     0.1630    17.9777 </r>
       <r>    33.8379     0.0189    17.9800 </r>
       <r>    33.9587     0.0168    17.9821 </r>
       <r>    34.0794     0.0186    17.9843 </r>
       <r>    34.2001     0.0028    17.9846 </r>
       <r>    34.3208    -0.0016    17.9844 </r>
       <r>    34.4416    -0.0009    17.9843 </r>
       <r>    34.5623    -0.0019    17.9841 </r>
       <r>    34.6830     0.0001    17.9841 </r>
       <r>    34.8038     0.0204    17.9866 </r>
       <r>    34.9245     0.0502    17.9926 </r>
       <r>    35.0452     0.0474    17.9984 </r>
       <r>    35.1660     0.0165    18.0003 </r>
       <r>    35.2867    -0.0009    18.0002 </r>
       <r>    35.4074    -0.0016    18.0000 </r>
       <r>    35.5281    -0.0003    18.0000 </r>
       <r>    35.6489     0.0000    18.0000 </r>
       <r>    35.7696     0.0000    18.0000 </r>
       <r>    35.8903     0.0000    18.0000 </r>
       <r>    36.0111     0.0000    18.0000 </r>
       <r>    36.1318     0.0000    18.0000 </r>
       <r>    36.2525     0.0000    18.0000 </r>
       <r>    36.3733     0.0000    18.0000 </r>
       <r>    36.4940     0.0000    18.0000 </r>
       <r>    36.6147     0.0000    18.0000 </r>
       <r>    36.7354     0.0000    18.0000 </r>
       <r>    36.8562     0.0000    18.0000 </r>
       <r>    36.9769     0.0000    18.0000 </r>
      </set>
     </set>
    </array>
   </total>
  </dos>
 </calculation>
 <structure name="finalpos" >
  <crystal>
   <varray name="basis" >
    <v>       2.66070140       0.00000000       0.00000000 </v>
    <v>       1.33035070       2.30423500       0.00000000 </v>
    <v>       1.33035070       0.76807833       2.17245359 </v>
   </varray>
   <i name="volume">     13.31905507 </i>
   <varray name="rec_basis" >
    <v>       0.37584075      -0.21699176      -0.15343634 </v>
    <v>       0.00000000       0.43398351      -0.15343634 </v>
    <v>       0.00000000       0.00000000       0.46030903 </v>
   </varray>
  </crystal>
  <varray name="positions" >
   <v>       0.00000000       0.00000000       0.00000000 </v>
  </varray>
 </structure>
</modeling>
