 vasp.5.3.5 31Mar14 (build Jan 09 2015 16:57:47) complex                        
  
 POSCAR found :  1 types and       1 ions
 LDA part: xc-table for Pade appr. of Perdew
 POSCAR found :  1 types and       1 ions
 POSCAR, INCAR and KPOINTS ok, starting setup
 WARNING: small aliasing (wrap around) errors must be expected
 FFT: planning ...
 WAVECAR not read
 entering main loop
       N       E                     dE             d eps       ncg     rms          rms(c)
DAV:   1     0.285363642389E+02    0.28536E+02   -0.47732E+03  1240   0.816E+02
DAV:   2    -0.220168727926E+01   -0.30738E+02   -0.29209E+02  1119   0.169E+02
DAV:   3    -0.240240918366E+01   -0.20072E+00   -0.20071E+00  1254   0.159E+01
DAV:   4    -0.240277714352E+01   -0.36796E-03   -0.36795E-03  1207   0.637E-01
DAV:   5    -0.240277902509E+01   -0.18816E-05   -0.18811E-05  1076   0.422E-02    0.108E+01
DAV:   6    -0.213276511706E+01    0.27001E+00   -0.90080E-01  1095   0.110E+01    0.628E+00
DAV:   7    -0.210450597002E+01    0.28259E-01   -0.54478E-02  1152   0.266E+00    0.268E+00
DAV:   8    -0.209929786178E+01    0.52081E-02   -0.17995E-03  1138   0.486E-01    0.151E-01
DAV:   9    -0.209930483287E+01   -0.69711E-05   -0.61123E-06   579   0.296E-02
   1 F= -.20993048E+01 E0= -.20995745E+01  d E =-.209930E+01
 curvature:   0.00 expect dE= 0.000E+00 dE for cont linesearch  0.000E+00
 trial: gam= 0.00000 g(F)=  0.997E-62 g(S)=  0.000E+00 ort = 0.000E+00 (trialstep = 0.100E+01)
 search vector abs. value=  0.100E-09
 reached required accuracy - stopping structural energy minimisation
 writing wavefunctions
