unknown system                          
           1
     2.660701    0.000000    0.000000
     1.330351    2.304235    0.000000
     1.330351    0.768078    2.172454
   Ag
   1
Direct configuration=     1
   0.00000000  0.00000000  0.00000000
